  -8.27586204E-02     0.00000000    
  -8.24586228E-02     0.00000000    
  -8.21586177E-02     0.00000000    
  -8.18586200E-02     0.00000000    
  -8.15586224E-02     0.00000000    
  -8.12586173E-02     0.00000000    
  -8.09586197E-02     0.00000000    
  -8.06586221E-02     0.00000000    
  -8.03586170E-02     0.00000000    
  -8.00586194E-02     0.00000000    
  -7.97586218E-02     0.00000000    
  -7.94586241E-02     0.00000000    
  -7.91586190E-02     0.00000000    
  -7.88586214E-02     0.00000000    
  -7.85586238E-02     0.00000000    
  -7.82586187E-02     0.00000000    
  -7.79586211E-02     0.00000000    
  -7.76586235E-02     0.00000000    
  -7.73586184E-02     0.00000000    
  -7.70586208E-02     0.00000000    
  -7.67586231E-02     0.00000000    
  -7.64586180E-02     0.00000000    
  -7.61586204E-02     0.00000000    
  -7.58586228E-02     0.00000000    
  -7.55586177E-02     0.00000000    
  -7.52586201E-02     0.00000000    
  -7.49586225E-02     0.00000000    
  -7.46586174E-02     0.00000000    
  -7.43586197E-02     0.00000000    
  -7.40586221E-02     0.00000000    
  -7.37586170E-02     0.00000000    
  -7.34586194E-02     0.00000000    
  -7.31586218E-02     0.00000000    
  -7.28586242E-02     0.00000000    
  -7.25586191E-02     0.00000000    
  -7.22586215E-02     0.00000000    
  -7.19586238E-02     0.00000000    
  -7.16586187E-02     0.00000000    
  -7.13586211E-02     0.00000000    
  -7.10586235E-02     0.00000000    
  -7.07586184E-02     0.00000000    
  -7.04586208E-02     0.00000000    
  -7.01586232E-02     0.00000000    
  -6.98586181E-02     0.00000000    
  -6.95586205E-02     0.00000000    
  -6.92586228E-02     0.00000000    
  -6.89586177E-02     0.00000000    
  -6.86586201E-02     0.00000000    
  -6.83586225E-02     0.00000000    
  -6.80586174E-02     0.00000000    
  -6.77586198E-02     0.00000000    
  -6.74586222E-02     0.00000000    
  -6.71586171E-02     0.00000000    
  -6.68586195E-02     0.00000000    
  -6.65586218E-02     0.00000000    
  -6.62586242E-02     0.00000000    
  -6.59586191E-02     0.00000000    
  -6.56586215E-02     0.00000000    
  -6.53586239E-02     0.00000000    
  -6.50586188E-02     0.00000000    
  -6.47586212E-02     0.00000000    
  -6.44586235E-02     0.00000000    
  -6.41586185E-02     0.00000000    
  -6.38586208E-02     0.00000000    
  -6.35586232E-02     0.00000000    
  -6.32586181E-02     0.00000000    
  -6.29586205E-02     0.00000000    
  -6.26586229E-02     0.00000000    
  -6.23586215E-02     0.00000000    
  -6.20586202E-02     0.00000000    
  -6.17586225E-02     0.00000000    
  -6.14586212E-02     0.00000000    
  -6.11586198E-02     0.00000000    
  -6.08586222E-02     0.00000000    
  -6.05586208E-02     0.00000000    
  -6.02586195E-02     0.00000000    
  -5.99586219E-02     0.00000000    
  -5.96586205E-02     0.00000000    
  -5.93586192E-02     0.00000000    
  -5.90586215E-02     0.00000000    
  -5.87586202E-02     0.00000000    
  -5.84586225E-02     0.00000000    
  -5.81586212E-02     0.00000000    
  -5.78586198E-02     0.00000000    
  -5.75586222E-02     0.00000000    
  -5.72586209E-02     0.00000000    
  -5.69586195E-02     0.00000000    
  -5.66586219E-02     0.00000000    
  -5.63586205E-02     0.00000000    
  -5.60586192E-02     0.00000000    
  -5.57586215E-02     0.00000000    
  -5.54586202E-02     0.00000000    
  -5.51586188E-02     0.00000000    
  -5.48586212E-02     0.00000000    
  -5.45586199E-02     0.00000000    
  -5.42586222E-02     0.00000000    
  -5.39586209E-02     0.00000000    
  -5.36586195E-02     0.00000000    
  -5.33586219E-02     0.00000000    
  -5.30586205E-02     0.00000000    
  -5.27586192E-02     0.00000000    
  -5.24586216E-02     0.00000000    
  -5.21586202E-02     0.00000000    
  -5.18586189E-02     0.00000000    
  -5.15586212E-02     0.00000000    
  -5.12586199E-02     0.00000000    
  -5.09586222E-02     0.00000000    
  -5.06586209E-02     0.00000000    
  -5.03586195E-02     0.00000000    
  -5.00586219E-02     0.00000000    
  -4.97586206E-02     0.00000000    
  -4.94586192E-02     0.00000000    
  -4.91586216E-02     0.00000000    
  -4.88586202E-02     0.00000000    
  -4.85586189E-02     0.00000000    
  -4.82586212E-02     0.00000000    
  -4.79586199E-02     0.00000000    
  -4.76586223E-02     0.00000000    
  -4.73586209E-02     0.00000000    
  -4.70586196E-02     0.00000000    
  -4.67586219E-02     0.00000000    
  -4.64586206E-02     0.00000000    
  -4.61586192E-02     0.00000000    
  -4.58586216E-02     0.00000000    
  -4.55586202E-02     0.00000000    
  -4.52586189E-02     0.00000000    
  -4.49586213E-02     0.00000000    
  -4.46586199E-02     0.00000000    
  -4.43586223E-02     0.00000000    
  -4.40586209E-02     0.00000000    
  -4.37586196E-02     0.00000000    
  -4.34586219E-02     0.00000000    
  -4.31586206E-02     0.00000000    
  -4.28586192E-02     0.00000000    
  -4.25586216E-02     0.00000000    
  -4.22586203E-02     0.00000000    
  -4.19586189E-02     0.00000000    
  -4.16586213E-02     0.00000000    
  -4.13586199E-02     0.00000000    
  -4.10586223E-02     0.00000000    
  -4.07586209E-02     0.00000000    
  -4.04586196E-02     0.00000000    
  -4.01586220E-02     0.00000000    
  -3.98586206E-02     0.00000000    
  -3.95586193E-02     0.00000000    
  -3.92586216E-02     0.00000000    
  -3.89586203E-02     0.00000000    
  -3.86586189E-02     0.00000000    
  -3.83586213E-02     0.00000000    
  -3.80586199E-02     0.00000000    
  -3.77586223E-02     0.00000000    
  -3.74586210E-02     0.00000000    
  -3.71586196E-02     0.00000000    
  -3.68586220E-02     0.00000000    
  -3.65586206E-02     0.00000000    
  -3.62586193E-02     0.00000000    
  -3.59586217E-02     0.00000000    
  -3.56586203E-02     0.00000000    
  -3.53586189E-02     0.00000000    
  -3.50586213E-02     0.00000000    
  -3.47586200E-02     0.00000000    
  -3.44586223E-02     0.00000000    
  -3.41586210E-02     0.00000000    
  -3.38586196E-02     0.00000000    
  -3.35586220E-02     0.00000000    
  -3.32586206E-02     0.00000000    
  -3.29586193E-02     0.00000000    
  -3.26586217E-02     0.00000000    
  -3.23586203E-02     0.00000000    
  -3.20586190E-02     0.00000000    
  -3.17586213E-02     0.00000000    
  -3.14586200E-02     0.00000000    
  -3.11586205E-02     0.00000000    
  -3.08586210E-02     0.00000000    
  -3.05586215E-02     0.00000000    
  -3.02586202E-02     0.00000000    
  -2.99586207E-02     0.00000000    
  -2.96586212E-02     0.00000000    
  -2.93586198E-02     0.00000000    
  -2.90586203E-02     0.00000000    
  -2.87586208E-02     0.00000000    
  -2.84586214E-02     0.00000000    
  -2.81586200E-02     0.00000000    
  -2.78586205E-02     0.00000000    
  -2.75586210E-02     0.00000000    
  -2.72586215E-02     0.00000000    
  -2.69586202E-02     0.00000000    
  -2.66586207E-02     0.00000000    
  -2.63586212E-02     0.00000000    
  -2.60586198E-02     0.00000000    
  -2.57586204E-02     0.00000000    
  -2.54586209E-02     0.00000000    
  -2.51586214E-02     0.00000000    
  -2.48586200E-02     0.00000000    
  -2.45586205E-02     0.00000000    
  -2.42586210E-02     0.00000000    
  -2.39586215E-02     0.00000000    
  -2.36586202E-02     0.00000000    
  -2.33586207E-02     0.00000000    
  -2.30586212E-02     0.00000000    
  -2.27586199E-02     0.00000000    
  -2.24586204E-02     0.00000000    
  -2.21586209E-02     0.00000000    
  -2.18586214E-02     0.00000000    
  -2.15586200E-02     0.00000000    
  -2.12586205E-02     0.00000000    
  -2.09586211E-02     0.00000000    
  -2.06586216E-02     0.00000000    
  -2.03586202E-02     0.00000000    
  -2.00586207E-02     0.00000000    
  -1.97586212E-02     0.00000000    
  -1.94586199E-02     0.00000000    
  -1.91586204E-02     0.00000000    
  -1.88586209E-02     0.00000000    
  -1.85586214E-02     0.00000000    
  -1.82586201E-02     0.00000000    
  -1.79586206E-02     0.00000000    
  -1.76586211E-02     0.00000000    
  -1.73586216E-02     0.00000000    
  -1.70586202E-02     0.00000000    
  -1.67586207E-02     0.00000000    
  -1.64586212E-02     0.00000000    
  -1.61586199E-02     0.00000000    
  -1.58586204E-02     0.00000000    
  -1.55586209E-02     0.00000000    
  -1.52586205E-02     0.00000000    
  -1.49586210E-02     0.00000000    
  -1.46586206E-02     0.00000000    
  -1.43586211E-02     0.00000000    
  -1.40586207E-02     0.00000000    
  -1.37586202E-02     0.00000000    
  -1.34586208E-02     0.00000000    
  -1.31586203E-02     0.00000000    
  -1.28586208E-02     0.00000000    
  -1.25586204E-02     0.00000000    
  -1.22586209E-02     0.00000000    
  -1.19586205E-02     0.00000000    
  -1.16586210E-02     0.00000000    
  -1.13586206E-02     0.00000000    
  -1.10586211E-02     0.00000000    
  -1.07586207E-02     0.00000000    
  -1.04586203E-02     0.00000000    
  -1.01586208E-02     0.00000000    
  -9.85862035E-03     0.00000000    
  -9.55862086E-03     0.00000000    
  -9.25862044E-03     0.00000000    
  -8.95862095E-03     0.00000000    
  -8.65862053E-03     0.00000000    
  -8.35862104E-03     0.00000000    
  -8.05862062E-03     0.00000000    
  -7.75862066E-03     0.00000000    
  -7.45862070E-03     0.00000000    
  -7.15862075E-03     0.00000000    
  -6.85862079E-03     0.00000000    
  -6.55862084E-03     0.00000000    
  -6.25862088E-03     0.00000000    
  -5.95862046E-03     0.00000000    
  -5.65862050E-03     0.00000000    
  -5.35862055E-03     0.00000000    
  -5.05862059E-03     0.00000000    
  -4.75862063E-03     0.00000000    
  -4.45862068E-03     0.00000000    
  -4.15862072E-03     0.00000000    
  -3.85862077E-03     0.00000000    
  -3.55862058E-03     0.00000000    
  -3.25862062E-03     0.00000000    
  -2.95862067E-03     0.00000000    
  -2.65862071E-03     0.00000000    
  -2.35862075E-03     0.00000000    
  -2.05862080E-03     0.00000000    
  -1.75862073E-03     0.00000000    
  -1.45862065E-03     0.00000000    
  -1.15862070E-03     0.00000000    
  -8.58620682E-04     0.00000000    
  -5.58620668E-04     0.00000000    
  -2.58620683E-04     0.00000000    
   4.13793096E-05     0.00000000    
   3.41379317E-04     0.00000000    
   6.41379331E-04     0.00000000    
   9.41379287E-04     0.00000000    
   1.24137930E-03     0.00000000    
   1.54137926E-03     0.00000000    
   1.84137933E-03     0.00000000    
   2.14137929E-03     0.00000000    
   2.44137924E-03     0.00000000    
   2.74137920E-03     0.00000000    
   3.04137939E-03     0.00000000    
   3.34137934E-03     0.00000000    
   3.64137930E-03     0.00000000    
   3.94137949E-03     0.00000000    
   4.24137944E-03     0.00000000    
   4.54137940E-03     0.00000000    
   4.84137936E-03     0.00000000    
   5.14137931E-03     0.00000000    
   5.44137927E-03     0.00000000    
   5.74137922E-03     0.00000000    
   6.04137918E-03     0.00000000    
   6.34137914E-03     0.00000000    
   6.64137909E-03     0.00000000    
   6.94137951E-03     0.00000000    
   7.24137947E-03     0.00000000    
   7.54137943E-03     0.00000000    
   7.84137938E-03     0.00000000    
   8.14137887E-03     0.00000000    
   8.44137929E-03     0.00000000    
   8.74137972E-03     0.00000000    
   9.04137921E-03     0.00000000    
   9.34137963E-03     0.00000000    
   9.64137912E-03     0.00000000    
   9.94137954E-03     0.00000000    
   1.02413790E-02     0.00000000    
   1.05413795E-02     0.00000000    
   1.08413789E-02     0.00000000    
   1.11413794E-02     0.00000000    
   1.14413789E-02     0.00000000    
   1.17413793E-02     0.00000000    
   1.20413797E-02     0.00000000    
   1.23413792E-02     0.00000000    
   1.26413796E-02     0.00000000    
   1.29413791E-02     0.00000000    
   1.32413795E-02     0.00000000    
   1.35413790E-02     0.00000000    
   1.38413794E-02     0.00000000    
   1.41413789E-02     0.00000000    
   1.44413793E-02     0.00000000    
   1.47413798E-02     0.00000000    
   1.50413793E-02     0.00000000    
   1.53413797E-02     0.00000000    
   1.56413801E-02     0.00000000    
   1.59413796E-02     0.00000000    
   1.62413791E-02     0.00000000    
   1.65413786E-02     0.00000000    
   1.68413799E-02     0.00000000    
   1.71413794E-02     0.00000000    
   1.74413789E-02     0.00000000    
   1.77413784E-02     0.00000000    
   1.80413797E-02     0.00000000    
   1.83413792E-02     0.00000000    
   1.86413787E-02     0.00000000    
   1.89413801E-02     0.00000000    
   1.92413796E-02     0.00000000    
   1.95413791E-02     0.00000000    
   1.98413786E-02     0.00000000    
   2.01413799E-02     0.00000000    
   2.04413794E-02     0.00000000    
   2.07413789E-02     0.00000000    
   2.10413802E-02     0.00000000    
   2.13413797E-02     0.00000000    
   2.16413792E-02     0.00000000    
   2.19413787E-02     0.00000000    
   2.22413801E-02     0.00000000    
   2.25413796E-02     0.00000000    
   2.28413790E-02     0.00000000    
   2.31413785E-02     0.00000000    
   2.34413799E-02     0.00000000    
   2.37413794E-02     0.00000000    
   2.40413789E-02     0.00000000    
   2.43413802E-02     0.00000000    
   2.46413797E-02     0.00000000    
   2.49413792E-02     0.00000000    
   2.52413787E-02     0.00000000    
   2.55413800E-02     0.00000000    
   2.58413795E-02     0.00000000    
   2.61413790E-02     0.00000000    
   2.64413785E-02     0.00000000    
   2.67413799E-02     0.00000000    
   2.70413794E-02     0.00000000    
   2.73413789E-02     0.00000000    
   2.76413802E-02     0.00000000    
   2.79413797E-02     0.00000000    
   2.82413792E-02     0.00000000    
   2.85413787E-02     0.00000000    
   2.88413800E-02     0.00000000    
   2.91413795E-02     0.00000000    
   2.94413790E-02     0.00000000    
   2.97413785E-02     0.00000000    
   3.00413799E-02     0.00000000    
   3.03413793E-02     0.00000000    
   3.06413788E-02     0.00000000    
   3.09413802E-02     0.00000000    
   3.12413797E-02     0.00000000    
   3.15413810E-02     0.00000000    
   3.18413787E-02     0.00000000    
   3.21413800E-02     0.00000000    
   3.24413776E-02     0.00000000    
   3.27413790E-02     0.00000000    
   3.30413803E-02     0.00000000    
   3.33413780E-02     0.00000000    
   3.36413793E-02     0.00000000    
   3.39413807E-02     0.00000000    
   3.42413783E-02     0.00000000    
   3.45413797E-02     0.00000000    
   3.48413810E-02     0.00000000    
   3.51413786E-02     0.00000000    
   3.54413800E-02     0.00000000    
   3.57413776E-02     0.00000000    
   3.60413790E-02     0.00000000    
   3.63413803E-02     0.00000000    
   3.66413780E-02     0.00000000    
   3.69413793E-02     0.00000000    
   3.72413807E-02     0.00000000    
   3.75413783E-02     0.00000000    
   3.78413796E-02     0.00000000    
   3.81413810E-02     0.00000000    
   3.84413786E-02     0.00000000    
   3.87413800E-02     0.00000000    
   3.90413776E-02     0.00000000    
   3.93413790E-02     0.00000000    
   3.96413803E-02     0.00000000    
   3.99413779E-02     0.00000000    
   4.02413793E-02     0.00000000    
   4.05413806E-02     0.00000000    
   4.08413783E-02     0.00000000    
   4.11413796E-02     0.00000000    
   4.14413810E-02     0.00000000    
   4.17413786E-02     0.00000000    
   4.20413800E-02     0.00000000    
   4.23413776E-02     0.00000000    
   4.26413789E-02     0.00000000    
   4.29413803E-02     0.00000000    
   4.32413779E-02     0.00000000    
   4.35413793E-02     0.00000000    
   4.38413806E-02     0.00000000    
   4.41413783E-02     0.00000000    
   4.44413796E-02     0.00000000    
   4.47413810E-02     0.00000000    
   4.50413786E-02     0.00000000    
   4.53413799E-02     0.00000000    
   4.56413776E-02     0.00000000    
   4.59413789E-02     0.00000000    
   4.62413803E-02     0.00000000    
   4.65413779E-02     0.00000000    
   4.68413793E-02     0.00000000    
   4.71413806E-02     0.00000000    
   4.74413782E-02     0.00000000    
   4.77413796E-02     0.00000000    
   4.80413809E-02     0.00000000    
   4.83413786E-02     0.00000000    
   4.86413799E-02     0.00000000    
   4.89413776E-02     0.00000000    
   4.92413789E-02     0.00000000    
   4.95413803E-02     0.00000000    
   4.98413779E-02     0.00000000    
   5.01413792E-02     0.00000000    
   5.04413806E-02     0.00000000    
   5.07413782E-02     0.00000000    
   5.10413796E-02     0.00000000    
   5.13413809E-02     0.00000000    
   5.16413786E-02     0.00000000    
   5.19413799E-02     0.00000000    
   5.22413775E-02     0.00000000    
   5.25413789E-02     0.00000000    
   5.28413802E-02     0.00000000    
   5.31413779E-02     0.00000000    
   5.34413792E-02     0.00000000    
   5.37413806E-02     0.00000000    
   5.40413782E-02     0.00000000    
   5.43413796E-02     0.00000000    
   5.46413809E-02     0.00000000    
   5.49413785E-02     0.00000000    
   5.52413799E-02     0.00000000    
   5.55413775E-02     0.00000000    
   5.58413789E-02     0.00000000    
   5.61413802E-02     0.00000000    
   5.64413778E-02     0.00000000    
   5.67413792E-02     0.00000000    
   5.70413806E-02     0.00000000    
   5.73413782E-02     0.00000000    
   5.76413795E-02     0.00000000    
   5.79413809E-02     0.00000000    
   5.82413785E-02     0.00000000    
   5.85413799E-02     0.00000000    
   5.88413775E-02     0.00000000    
   5.91413788E-02     0.00000000    
   5.94413802E-02     0.00000000    
   5.97413778E-02     0.00000000    
   6.00413792E-02     0.00000000    
   6.03413805E-02     0.00000000    
   6.06413782E-02     0.00000000    
   6.09413795E-02     0.00000000    
   6.12413809E-02     0.00000000    
   6.15413785E-02     0.00000000    
   6.18413799E-02     0.00000000    
   6.21413775E-02     0.00000000    
   6.24413788E-02     0.00000000    
   6.27413765E-02     0.00000000    
   6.30413815E-02     0.00000000    
   6.33413792E-02     0.00000000    
   6.36413768E-02     0.00000000    
   6.39413819E-02     0.00000000    
   6.42413795E-02     0.00000000    
   6.45413771E-02     0.00000000    
   6.48413822E-02     0.00000000    
   6.51413798E-02     0.00000000    
   6.54413775E-02     0.00000000    
   6.57413825E-02     0.00000000    
   6.60413802E-02     0.00000000    
   6.63413778E-02     0.00000000    
   6.66413829E-02     0.00000000    
   6.69413805E-02     0.00000000    
   6.72413781E-02     0.00000000    
   6.75413758E-02     0.00000000    
   6.78413808E-02     0.00000000    
   6.81413785E-02     0.00000000    
   6.84413761E-02     0.00000000    
   6.87413812E-02     0.00000000    
   6.90413788E-02     0.00000000    
   6.93413764E-02     0.00000000    
   6.96413815E-02     0.00000000    
   6.99413791E-02     0.00000000    
   7.02413768E-02     0.00000000    
   7.05413818E-02     0.00000000    
   7.08413795E-02     0.00000000    
   7.11413771E-02     0.00000000    
   7.14413822E-02     0.00000000    
   7.17413798E-02     0.00000000    
   7.20413774E-02     0.00000000    
   7.23413825E-02     0.00000000    
   7.26413801E-02     0.00000000    
   7.29413778E-02     0.00000000    
   7.32413828E-02     0.00000000    
   7.35413805E-02     0.00000000    
   7.38413781E-02     0.00000000    
   7.41413757E-02     0.00000000    
   7.44413808E-02     0.00000000    
   7.47413784E-02     0.00000000    
   7.50413761E-02     0.00000000    
   7.53413811E-02     0.00000000    
   7.56413788E-02     0.00000000    
   7.59413764E-02     0.00000000    
   7.62413815E-02     0.00000000    
   7.65413791E-02     0.00000000    
   7.68413767E-02     0.00000000    
   7.71413818E-02     0.00000000    
   7.74413794E-02     0.00000000    
   7.77413771E-02     0.00000000    
   7.80413821E-02     0.00000000    
   7.83413798E-02     0.00000000    
   7.86413774E-02     0.00000000    
   7.89413825E-02     0.00000000    
   7.92413801E-02     0.00000000    
   7.95413777E-02     0.00000000    
   7.98413828E-02     0.00000000    
   8.01413804E-02     0.00000000    
   8.04413781E-02     0.00000000    
   8.07413757E-02     0.00000000    
   8.10413808E-02     0.00000000    
   8.13413784E-02     0.00000000    
   8.16413760E-02     0.00000000    
   8.19413811E-02     0.00000000    
   8.22413787E-02     0.00000000    
   8.25413764E-02     0.00000000    
   8.28413814E-02     0.00000000    
   8.31413791E-02     0.00000000    
   8.34413767E-02     0.00000000    
   8.37413818E-02     0.00000000    
   8.40413794E-02     0.00000000    
   8.43413770E-02     0.00000000    
   8.46413821E-02     0.00000000    
   8.49413797E-02     0.00000000    
   8.52413774E-02     0.00000000    
   8.55413824E-02     0.00000000    
   8.58413801E-02     0.00000000    
   8.61413777E-02     0.00000000    
   8.64413828E-02     0.00000000    
   8.67413804E-02     0.00000000    
   8.70413780E-02     0.00000000    
   8.73413756E-02     0.00000000    
   8.76413807E-02     0.00000000    
   8.79413784E-02     0.00000000    
   8.82413760E-02     0.00000000    
   8.85413811E-02     0.00000000    
   8.88413787E-02     0.00000000    
   8.91413763E-02     0.00000000    
   8.94413814E-02     0.00000000    
   8.97413790E-02     0.00000000    
   9.00413767E-02     0.00000000    
   9.03413817E-02     0.00000000    
   9.06413794E-02     0.00000000    
   9.09413770E-02     0.00000000    
   9.12413821E-02     0.00000000    
   9.15413797E-02     0.00000000    
   9.18413773E-02     0.00000000    
   9.21413824E-02     0.00000000    
   9.24413800E-02     0.00000000    
   9.27413777E-02     0.00000000    
   9.30413827E-02     0.00000000    
   9.33413804E-02     0.00000000    
   9.36413780E-02     0.00000000    
   9.39413756E-02     0.00000000    
   9.42413807E-02     0.00000000    
   9.45413783E-02     0.00000000    
   9.48413759E-02     0.00000000    
   9.51413810E-02     0.00000000    
   9.54413787E-02     0.00000000    
   9.57413763E-02     0.00000000    
   9.60413814E-02     0.00000000    
   9.63413790E-02     0.00000000    
   9.66413766E-02     0.00000000    
   9.69413817E-02     0.00000000    
   9.72413793E-02     0.00000000    
   9.75413769E-02     0.00000000    
   9.78413820E-02     0.00000000    
   9.81413797E-02     0.00000000    
   9.84413773E-02     0.00000000    
   9.87413824E-02     0.00000000    
   9.90413800E-02     0.00000000    
   9.93413776E-02     0.00000000    
   9.96413827E-02     0.00000000    
   9.99413803E-02     0.00000000    
  0.100241378         0.00000000    
  0.100541383         0.00000000    
  0.100841381         0.00000000    
  0.101141378         0.00000000    
  0.101441376         0.00000000    
  0.101741381         0.00000000    
  0.102041379         0.00000000    
  0.102341376         0.00000000    
  0.102641381         0.00000000    
  0.102941379         0.00000000    
  0.103241377         0.00000000    
  0.103541382         0.00000000    
  0.103841379         0.00000000    
  0.104141377         0.00000000    
  0.104441382         0.00000000    
  0.104741380         0.00000000    
  0.105041377         0.00000000    
  0.105341382         0.00000000    
  0.105641380         0.00000000    
  0.105941378         0.00000000    
  0.106241383         0.00000000    
  0.106541380         0.00000000    
  0.106841378         0.00000000    
  0.107141383         0.00000000    
  0.107441381         0.00000000    
  0.107741378         0.00000000    
  0.108041376         0.00000000    
  0.108341381         0.00000000    
  0.108641379         0.00000000    
  0.108941376         0.00000000    
  0.109241381         0.00000000    
  0.109541379         0.00000000    
  0.109841377         0.00000000    
  0.110141382         0.00000000    
  0.110441379         0.00000000    
  0.110741377         0.00000000    
  0.111041382         0.00000000    
  0.111341380         0.00000000    
  0.111641377         0.00000000    
  0.111941382         0.00000000    
  0.112241380         0.00000000    
  0.112541378         0.00000000    
  0.112841383         0.00000000    
  0.113141380         0.00000000    
  0.113441378         0.00000000    
  0.113741383         0.00000000    
  0.114041381         0.00000000    
  0.114341378         0.00000000    
  0.114641376         0.00000000    
  0.114941381         0.00000000    
  0.115241379         0.00000000    
  0.115541376         0.00000000    
  0.115841381         0.00000000    
  0.116141379         0.00000000    
  0.116441377         0.00000000    
  0.116741382         0.00000000    
  0.117041379         0.00000000    
  0.117341377         0.00000000    
  0.117641382         0.00000000    
  0.117941380         0.00000000    
  0.118241377         0.00000000    
  0.118541382         0.00000000    
  0.118841380         0.00000000    
  0.119141378         0.00000000    
  0.119441383         0.00000000    
  0.119741380         0.00000000    
  0.120041378         0.00000000    
  0.120341383         0.00000000    
  0.120641381         0.00000000    
  0.120941378         0.00000000    
  0.121241376         0.00000000    
  0.121541381         0.00000000    
  0.121841379         0.00000000    
  0.122141376         0.00000000    
  0.122441381         0.00000000    
  0.122741379         0.00000000    
  0.123041376         0.00000000    
  0.123341382         0.00000000    
  0.123641379         0.00000000    
  0.123941377         0.00000000    
  0.124241382         0.00000000    
  0.124541380         0.00000000    
  0.124841377         0.00000000    
  0.125141382         0.00000000    
  0.125441372         0.00000000    
  0.125741377         0.00000000    
  0.126041383         0.00000000    
  0.126341373         0.00000000    
  0.126641378         0.00000000    
  0.126941383         0.00000000    
  0.127241373         0.00000000    
  0.127541378         0.00000000    
  0.127841383         0.00000000    
  0.128141373         0.00000000    
  0.128441378         0.00000000    
  0.128741384         0.00000000    
  0.129041374         0.00000000    
  0.129341379         0.00000000    
  0.129641384         0.00000000    
  0.129941374         0.00000000    
  0.130241379         0.00000000    
  0.130541384         0.00000000    
  0.130841374         0.00000000    
  0.131141379         0.00000000    
  0.131441385         0.00000000    
  0.131741375         0.00000000    
  0.132041380         0.00000000    
  0.132341385         0.00000000    
  0.132641375         0.00000000    
  0.132941380         0.00000000    
  0.133241385         0.00000000    
  0.133541375         0.00000000    
  0.133841380         0.00000000    
  0.134141386         0.00000000    
  0.134441376         0.00000000    
  0.134741381         0.00000000    
  0.135041386         0.00000000    
  0.135341376         0.00000000    
  0.135641381         0.00000000    
  0.135941386         0.00000000    
  0.136241376         0.00000000    
  0.136541381         0.00000000    
  0.136841387         0.00000000    
  0.137141377         0.00000000    
  0.137441382         0.00000000    
  0.137741372         0.00000000    
  0.138041377         0.00000000    
  0.138341382         0.00000000    
  0.138641372         0.00000000    
  0.138941377         0.00000000    
  0.139241382        -0.00000000    
  0.139541373        -0.00000000    
  0.139841378        -0.00000000    
  0.140141383        -0.00000000    
  0.140441373        -0.00000000    
  0.140741378         0.00000000    
  0.141041383         0.00000000    
  0.141341373         0.00000000    
  0.141641378         0.00000000    
  0.141941383         0.00000000    
  0.142241374        -0.00000000    
  0.142541379        -0.00000000    
  0.142841384        -0.00000000    
  0.143141374        -0.00000000    
  0.143441379        -0.00000000    
  0.143741384        -0.00000000    
  0.144041374         0.00000000    
  0.144341379         0.00000000    
  0.144641384         0.00000000    
  0.144941375         0.00000000    
  0.145241380         0.00000000    
  0.145541385         0.00000000    
  0.145841375         0.00000000    
  0.146141380         0.00000000    
  0.146441385         0.00000000    
  0.146741375        -0.00000000    
  0.147041380        -0.00000000    
  0.147341385        -0.00000000    
  0.147641376        -0.00000000    
  0.147941381        -0.00000000    
  0.148241386        -1.17702415E-38
  0.148541376        -1.17973342E-38
  0.148841381        -0.00000000    
  0.149141386         0.00000000    
  0.149441376         1.68610397E-38
  0.149741381         1.87921467E-38
  0.150041386         1.22643912E-38
  0.150341377        -0.00000000    
  0.150641382        -1.61161795E-38
  0.150941372        -2.91589920E-38
  0.151241377        -4.18463062E-38
  0.151541382        -5.16895451E-38
  0.151841372        -5.49976969E-38
  0.152141377        -4.94040946E-38
  0.152441382        -3.20729529E-38
  0.152741373        -0.00000000    
  0.153041378         2.79358742E-38
  0.153341383         6.66804623E-38
  0.153641373         1.04194097E-37
  0.153941378         1.37997653E-37
  0.154241383         1.58405424E-37
  0.154541373         1.62844300E-37
  0.154841378         1.49388450E-37
  0.155141383         1.19784416E-37
  0.155441374         7.91781949E-38
  0.155741379         3.00561929E-38
  0.156041384        -2.40787497E-38
  0.156341374        -8.01379891E-38
  0.156641379        -1.37751944E-37
  0.156941384        -1.94486438E-37
  0.157241374        -2.49289338E-37
  0.157541379        -2.97789802E-37
  0.157841384        -3.33912855E-37
  0.158141375        -3.50067203E-37
  0.158441380        -3.37220211E-37
  0.158741385        -2.87144373E-37
  0.159041375        -1.93991679E-37
  0.159341380        -5.95166602E-38
  0.159641385         1.08841744E-37
  0.159941375         2.97831976E-37