  -8.27586204E-02     0.00000000    
  -8.24586228E-02     0.00000000    
  -8.21586177E-02     0.00000000    
  -8.18586200E-02     0.00000000    
  -8.15586224E-02     0.00000000    
  -8.12586173E-02     0.00000000    
  -8.09586197E-02     0.00000000    
  -8.06586221E-02     0.00000000    
  -8.03586170E-02     0.00000000    
  -8.00586194E-02     0.00000000    
  -7.97586218E-02     0.00000000    
  -7.94586241E-02     0.00000000    
  -7.91586190E-02     0.00000000    
  -7.88586214E-02     0.00000000    
  -7.85586238E-02     0.00000000    
  -7.82586187E-02     0.00000000    
  -7.79586211E-02     0.00000000    
  -7.76586235E-02     0.00000000    
  -7.73586184E-02     0.00000000    
  -7.70586208E-02     0.00000000    
  -7.67586231E-02     0.00000000    
  -7.64586180E-02     0.00000000    
  -7.61586204E-02     0.00000000    
  -7.58586228E-02     0.00000000    
  -7.55586177E-02     0.00000000    
  -7.52586201E-02     0.00000000    
  -7.49586225E-02     0.00000000    
  -7.46586174E-02     0.00000000    
  -7.43586197E-02     0.00000000    
  -7.40586221E-02     0.00000000    
  -7.37586170E-02     0.00000000    
  -7.34586194E-02     0.00000000    
  -7.31586218E-02     0.00000000    
  -7.28586242E-02     0.00000000    
  -7.25586191E-02     0.00000000    
  -7.22586215E-02     0.00000000    
  -7.19586238E-02     0.00000000    
  -7.16586187E-02     0.00000000    
  -7.13586211E-02     0.00000000    
  -7.10586235E-02     0.00000000    
  -7.07586184E-02     0.00000000    
  -7.04586208E-02     0.00000000    
  -7.01586232E-02     0.00000000    
  -6.98586181E-02     0.00000000    
  -6.95586205E-02     0.00000000    
  -6.92586228E-02     0.00000000    
  -6.89586177E-02     0.00000000    
  -6.86586201E-02     0.00000000    
  -6.83586225E-02     0.00000000    
  -6.80586174E-02     0.00000000    
  -6.77586198E-02     0.00000000    
  -6.74586222E-02     0.00000000    
  -6.71586171E-02     0.00000000    
  -6.68586195E-02     0.00000000    
  -6.65586218E-02     0.00000000    
  -6.62586242E-02     0.00000000    
  -6.59586191E-02     0.00000000    
  -6.56586215E-02     0.00000000    
  -6.53586239E-02     0.00000000    
  -6.50586188E-02     0.00000000    
  -6.47586212E-02     0.00000000    
  -6.44586235E-02     0.00000000    
  -6.41586185E-02     0.00000000    
  -6.38586208E-02     0.00000000    
  -6.35586232E-02     0.00000000    
  -6.32586181E-02     0.00000000    
  -6.29586205E-02     0.00000000    
  -6.26586229E-02     0.00000000    
  -6.23586215E-02     0.00000000    
  -6.20586202E-02     0.00000000    
  -6.17586225E-02     0.00000000    
  -6.14586212E-02     0.00000000    
  -6.11586198E-02     0.00000000    
  -6.08586222E-02     0.00000000    
  -6.05586208E-02     0.00000000    
  -6.02586195E-02     0.00000000    
  -5.99586219E-02     0.00000000    
  -5.96586205E-02     0.00000000    
  -5.93586192E-02     0.00000000    
  -5.90586215E-02     0.00000000    
  -5.87586202E-02     0.00000000    
  -5.84586225E-02     0.00000000    
  -5.81586212E-02     0.00000000    
  -5.78586198E-02     0.00000000    
  -5.75586222E-02     0.00000000    
  -5.72586209E-02     0.00000000    
  -5.69586195E-02     0.00000000    
  -5.66586219E-02     0.00000000    
  -5.63586205E-02     0.00000000    
  -5.60586192E-02     0.00000000    
  -5.57586215E-02     0.00000000    
  -5.54586202E-02     0.00000000    
  -5.51586188E-02     0.00000000    
  -5.48586212E-02     0.00000000    
  -5.45586199E-02     0.00000000    
  -5.42586222E-02     0.00000000    
  -5.39586209E-02     0.00000000    
  -5.36586195E-02     0.00000000    
  -5.33586219E-02     0.00000000    
  -5.30586205E-02     0.00000000    
  -5.27586192E-02     0.00000000    
  -5.24586216E-02     0.00000000    
  -5.21586202E-02     0.00000000    
  -5.18586189E-02     0.00000000    
  -5.15586212E-02     0.00000000    
  -5.12586199E-02     0.00000000    
  -5.09586222E-02     0.00000000    
  -5.06586209E-02     0.00000000    
  -5.03586195E-02     0.00000000    
  -5.00586219E-02     0.00000000    
  -4.97586206E-02     0.00000000    
  -4.94586192E-02     0.00000000    
  -4.91586216E-02     0.00000000    
  -4.88586202E-02     0.00000000    
  -4.85586189E-02     0.00000000    
  -4.82586212E-02     0.00000000    
  -4.79586199E-02     0.00000000    
  -4.76586223E-02     0.00000000    
  -4.73586209E-02     0.00000000    
  -4.70586196E-02     0.00000000    
  -4.67586219E-02     0.00000000    
  -4.64586206E-02     0.00000000    
  -4.61586192E-02     0.00000000    
  -4.58586216E-02     0.00000000    
  -4.55586202E-02     0.00000000    
  -4.52586189E-02     0.00000000    
  -4.49586213E-02     0.00000000    
  -4.46586199E-02     0.00000000    
  -4.43586223E-02     0.00000000    
  -4.40586209E-02     0.00000000    
  -4.37586196E-02     0.00000000    
  -4.34586219E-02     0.00000000    
  -4.31586206E-02     0.00000000    
  -4.28586192E-02     0.00000000    
  -4.25586216E-02     0.00000000    
  -4.22586203E-02     0.00000000    
  -4.19586189E-02     0.00000000    
  -4.16586213E-02     0.00000000    
  -4.13586199E-02     0.00000000    
  -4.10586223E-02     0.00000000    
  -4.07586209E-02     0.00000000    
  -4.04586196E-02     0.00000000    
  -4.01586220E-02     0.00000000    
  -3.98586206E-02     0.00000000    
  -3.95586193E-02     0.00000000    
  -3.92586216E-02     0.00000000    
  -3.89586203E-02     0.00000000    
  -3.86586189E-02     0.00000000    
  -3.83586213E-02     0.00000000    
  -3.80586199E-02     0.00000000    
  -3.77586223E-02     0.00000000    
  -3.74586210E-02     0.00000000    
  -3.71586196E-02     0.00000000    
  -3.68586220E-02     0.00000000    
  -3.65586206E-02     0.00000000    
  -3.62586193E-02     0.00000000    
  -3.59586217E-02     0.00000000    
  -3.56586203E-02     0.00000000    
  -3.53586189E-02     0.00000000    
  -3.50586213E-02     0.00000000    
  -3.47586200E-02     0.00000000    
  -3.44586223E-02     0.00000000    
  -3.41586210E-02     0.00000000    
  -3.38586196E-02     0.00000000    
  -3.35586220E-02     0.00000000    
  -3.32586206E-02     0.00000000    
  -3.29586193E-02     0.00000000    
  -3.26586217E-02     0.00000000    
  -3.23586203E-02     0.00000000    
  -3.20586190E-02     0.00000000    
  -3.17586213E-02     0.00000000    
  -3.14586200E-02     0.00000000    
  -3.11586205E-02     0.00000000    
  -3.08586210E-02     0.00000000    
  -3.05586215E-02     0.00000000    
  -3.02586202E-02     0.00000000    
  -2.99586207E-02     0.00000000    
  -2.96586212E-02     0.00000000    
  -2.93586198E-02     0.00000000    
  -2.90586203E-02     0.00000000    
  -2.87586208E-02     0.00000000    
  -2.84586214E-02     0.00000000    
  -2.81586200E-02     0.00000000    
  -2.78586205E-02     0.00000000    
  -2.75586210E-02     0.00000000    
  -2.72586215E-02     0.00000000    
  -2.69586202E-02     0.00000000    
  -2.66586207E-02     0.00000000    
  -2.63586212E-02     0.00000000    
  -2.60586198E-02     0.00000000    
  -2.57586204E-02     0.00000000    
  -2.54586209E-02     0.00000000    
  -2.51586214E-02     0.00000000    
  -2.48586200E-02     0.00000000    
  -2.45586205E-02     0.00000000    
  -2.42586210E-02     0.00000000    
  -2.39586215E-02     0.00000000    
  -2.36586202E-02     0.00000000    
  -2.33586207E-02     0.00000000    
  -2.30586212E-02     0.00000000    
  -2.27586199E-02     0.00000000    
  -2.24586204E-02     0.00000000    
  -2.21586209E-02     0.00000000    
  -2.18586214E-02     0.00000000    
  -2.15586200E-02     0.00000000    
  -2.12586205E-02     0.00000000    
  -2.09586211E-02     0.00000000    
  -2.06586216E-02     0.00000000    
  -2.03586202E-02     0.00000000    
  -2.00586207E-02     0.00000000    
  -1.97586212E-02     0.00000000    
  -1.94586199E-02     0.00000000    
  -1.91586204E-02     0.00000000    
  -1.88586209E-02     0.00000000    
  -1.85586214E-02     0.00000000    
  -1.82586201E-02     0.00000000    
  -1.79586206E-02     0.00000000    
  -1.76586211E-02     0.00000000    
  -1.73586216E-02     0.00000000    
  -1.70586202E-02     0.00000000    
  -1.67586207E-02     0.00000000    
  -1.64586212E-02     0.00000000    
  -1.61586199E-02     0.00000000    
  -1.58586204E-02     0.00000000    
  -1.55586209E-02     0.00000000    
  -1.52586205E-02     0.00000000    
  -1.49586210E-02     0.00000000    
  -1.46586206E-02     0.00000000    
  -1.43586211E-02     0.00000000    
  -1.40586207E-02     0.00000000    
  -1.37586202E-02     0.00000000    
  -1.34586208E-02     0.00000000    
  -1.31586203E-02     0.00000000    
  -1.28586208E-02     0.00000000    
  -1.25586204E-02     0.00000000    
  -1.22586209E-02     0.00000000    
  -1.19586205E-02     0.00000000    
  -1.16586210E-02     0.00000000    
  -1.13586206E-02     1.72586133E-38
  -1.10586211E-02     2.13146815E-38
  -1.07586207E-02     2.23306439E-38
  -1.04586203E-02     2.12917086E-38
  -1.01586208E-02     1.78830669E-38
  -9.85862035E-03     0.00000000    
  -9.55862086E-03     0.00000000    
  -9.25862044E-03    -0.00000000    
  -8.95862095E-03    -2.75504134E-38
  -8.65862053E-03    -4.75857529E-38
  -8.35862104E-03    -6.59802671E-38
  -8.05862062E-03    -7.88888268E-38
  -7.75862066E-03    -8.05810460E-38
  -7.45862070E-03    -7.85672064E-38
  -7.15862075E-03    -5.90646126E-38
  -6.85862079E-03    -2.42769522E-38
  -6.55862084E-03     2.32733226E-38
  -6.25862088E-03     7.14928071E-38
  -5.95862046E-03     1.06379057E-37
  -5.65862050E-03     1.17191880E-37
  -5.35862055E-03     1.00647264E-37
  -5.05862059E-03     5.57264898E-38
  -4.75862063E-03    -0.00000000    
  -4.45862068E-03    -7.00557755E-38
  -4.15862072E-03    -1.14937101E-37
  -3.85862077E-03    -1.25161277E-37
  -3.55862058E-03    -9.11709388E-38
  -3.25862062E-03    -1.53140202E-38
  -2.95862067E-03     8.54690049E-38
  -2.65862071E-03     1.83795293E-37
  -2.35862075E-03     2.46448670E-37
  -2.05862080E-03     2.43564327E-37
  -1.75862073E-03     1.60644609E-37
  -1.45862065E-03     0.00000000    
  -1.15862070E-03    -2.01961928E-37
  -8.58620682E-04    -3.98756630E-37
  -5.58620668E-04    -5.26738003E-37
  -2.58620683E-04    -5.30120985E-37
   4.13793096E-05    -3.73782330E-37
   3.41379317E-04    -7.13332609E-38
   6.41379331E-04     3.18189502E-37
   9.41379287E-04     6.93925556E-37
   1.24137930E-03     9.20988057E-37
   1.54137926E-03     8.72260000E-37
   1.84137933E-03     4.60797875E-37
   2.14137929E-03    -3.17208884E-37
   2.44137924E-03    -1.35717151E-36
   2.74137920E-03    -2.44705186E-36
   3.04137939E-03    -3.28362372E-36
   3.34137934E-03    -3.53574803E-36
   3.64137930E-03    -2.91705068E-36
   3.94137949E-03    -1.28353765E-36
   4.24137944E-03     1.29720060E-36
   4.54137940E-03     4.50631578E-36
   4.84137936E-03     7.78818387E-36
   5.14137931E-03     1.04301225E-35
   5.44137927E-03     1.16960798E-35
   5.74137922E-03     1.09991402E-35
   6.04137918E-03     8.06816160E-36
   6.34137914E-03     3.06840365E-36
   6.64137909E-03    -3.36562888E-36
   6.94137951E-03    -1.02087710E-35
   7.24137947E-03    -1.62369132E-35
   7.54137943E-03    -2.02986623E-35
   7.84137938E-03    -2.16079079E-35
   8.14137887E-03    -1.99782210E-35
   8.44137929E-03    -1.59241272E-35
   8.74137972E-03    -1.05711667E-35
   9.04137921E-03    -5.36690765E-36
   9.34137963E-03    -1.63829324E-36
   9.64137912E-03    -9.68857310E-38
   9.94137954E-03    -4.34849325E-37
   1.02413790E-02    -1.15987433E-36
   1.05413795E-02     2.15542483E-37
   1.08413789E-02     6.59334236E-36
   1.11413794E-02     2.03822312E-35
   1.14413789E-02     4.24465069E-35
   1.17413793E-02     7.11815324E-35
   1.20413797E-02     1.02019754E-34
   1.23413792E-02     1.27633466E-34
   1.26413796E-02     1.38972073E-34
   1.29413791E-02     1.27081225E-34
   1.32413795E-02     8.54219864E-35
   1.35413790E-02     1.22134294E-35
   1.38413794E-02    -8.78016449E-35
   1.41413789E-02    -2.02751263E-34
   1.44413793E-02    -3.14603591E-34
   1.47413798E-02    -4.01805367E-34
   1.50413793E-02    -4.43281307E-34
   1.53413797E-02    -4.23075799E-34
   1.56413801E-02    -3.34620768E-34
   1.59413796E-02    -1.83521071E-34
   1.62413791E-02     1.20715392E-35
   1.65413786E-02     2.23964735E-34
   1.68413799E-02     4.19119021E-34
   1.71413794E-02     5.66600629E-34
   1.74413789E-02     6.44752498E-34
   1.77413784E-02     6.46729900E-34
   1.80413797E-02     5.82679739E-34
   1.83413792E-02     4.77473453E-34
   1.86413787E-02     3.63944071E-34
   1.89413801E-02     2.72828451E-34
   1.92413796E-02     2.21776593E-34
   1.95413791E-02     2.06511858E-34
   1.98413786E-02     1.97240146E-34
   2.01413799E-02     1.42549502E-34
   2.04413794E-02    -1.86107158E-35
   2.07413789E-02    -3.38445969E-34
   2.10413802E-02    -8.39094041E-34
   2.13413797E-02    -1.49404955E-33
   2.16413792E-02    -2.21812092E-33
   2.19413787E-02    -2.87081747E-33
   2.22413801E-02    -3.27555909E-33
   2.25413796E-02    -3.25342747E-33
   2.28413790E-02    -2.66609668E-33
   2.31413785E-02    -1.45906895E-33
   2.34413799E-02     3.05557037E-34
   2.37413794E-02     2.43703544E-33
   2.40413789E-02     4.63165198E-33
   2.43413802E-02     6.51747773E-33
   2.46413797E-02     7.72253210E-33
   2.49413792E-02     7.95387085E-33
   2.52413787E-02     7.07026350E-33
   2.55413800E-02     5.12992531E-33
   2.58413795E-02     2.39803309E-33
   2.61413790E-02    -6.93453000E-34
   2.64413785E-02    -3.63023843E-33
   2.67413799E-02    -5.92910461E-33
   2.70413794E-02    -7.25522387E-33
   2.73413789E-02    -7.51348585E-33
   2.76413802E-02    -6.88613921E-33
   2.79413797E-02    -5.79897702E-33
   2.82413792E-02    -4.81451923E-33
   2.85413787E-02    -4.47001453E-33
   2.88413800E-02    -5.09608907E-33
   2.91413795E-02    -6.66335511E-33
   2.94413790E-02    -8.70525933E-33
   2.97413785E-02    -1.03536404E-32
   3.00413799E-02    -1.04999093E-32
   3.03413793E-02    -8.06340709E-33
   3.06413788E-02    -2.31637792E-33
   3.09413802E-02     6.80974163E-33
   3.12413797E-02     1.85215254E-32
   3.15413810E-02     3.11382547E-32
   3.18413787E-02     4.22861817E-32
   3.21413800E-02     4.93060518E-32
   3.24413776E-02     4.98122490E-32
   3.27413790E-02     4.22929673E-32
   3.30413803E-02     2.66111849E-32
   3.33413780E-02     4.26778432E-33
   3.36413793E-02    -2.16757338E-32
   3.39413807E-02    -4.70490380E-32
   3.42413783E-02    -6.73460815E-32
   3.45413797E-02    -7.86782408E-32
   3.48413810E-02    -7.87007045E-32
   3.51413786E-02    -6.72815409E-32
   3.54413800E-02    -4.67143806E-32
   3.57413776E-02    -2.13619312E-32
   3.60413790E-02     3.25442186E-33
   3.63413803E-02     2.17602871E-32
   3.66413780E-02     3.03465739E-32
   3.69413793E-02     2.79474987E-32
   3.72413807E-02     1.68357328E-32
   3.75413783E-02     2.39167715E-33
   3.78413796E-02    -8.01756354E-33
   3.81413810E-02    -6.89187709E-33
   3.84413786E-02     1.11897401E-32
   3.87413800E-02     4.75265473E-32
   3.90413776E-02     9.79927179E-32
   3.93413790E-02     1.52944663E-31
   3.96413803E-02     1.98575790E-31
   3.99413779E-02     2.19622006E-31
   4.02413793E-02     2.02960831E-31
   4.05413806E-02     1.41344615E-31
   4.08413783E-02     3.63525066E-32
   4.11413796E-02    -1.00303616E-31
   4.14413810E-02    -2.47707834E-31
   4.17413786E-02    -3.79025364E-31
   4.20413800E-02    -4.66699939E-31
   4.23413776E-02    -4.88578757E-31
   4.26413789E-02    -4.33609068E-31
   4.29413803E-02    -3.05662785E-31
   4.32413779E-02    -1.24306365E-31
   4.35413793E-02     7.80724321E-32
   4.38413806E-02     2.62546334E-31
   4.41413783E-02     3.92223580E-31
   4.44413796E-02     4.41280015E-31
   4.47413810E-02     4.02250828E-31
   4.50413786E-02     2.89528114E-31
   4.53413799E-02     1.37692777E-31
   4.56413776E-02    -5.57077095E-33
   4.59413789E-02    -9.08856732E-32
   4.62413803E-02    -8.05769169E-32
   4.65413779E-02     3.91292741E-32
   4.68413793E-02     2.50424707E-31
   4.71413806E-02     5.03406913E-31
   4.74413782E-02     7.23944794E-31
   4.77413796E-02     8.29179985E-31
   4.80413809E-02     7.47880492E-31
   4.83413786E-02     4.41232431E-31
   4.86413799E-02    -8.10996475E-32
   4.89413776E-02    -7.54374487E-31
   4.92413789E-02    -1.46469220E-30
   4.95413803E-02    -2.06780835E-30
   4.98413779E-02    -2.41808423E-30
   5.01413792E-02    -2.40194008E-30
   5.04413806E-02    -1.96829984E-30
   5.07413782E-02    -1.14826971E-30
   5.10413796E-02    -5.79116813E-32
   5.13413809E-02     1.11865920E-30
   5.16413786E-02     2.16414397E-30
   5.19413799E-02     2.87455821E-30
   5.22413775E-02     3.10736854E-30
   5.25413789E-02     2.81966037E-30
   5.28413802E-02     2.08578495E-30
   5.31413779E-02     1.08777003E-30
   5.34413792E-02     7.77634887E-32
   5.37413806E-02    -6.81282248E-31
   5.40413782E-02    -9.84219227E-31
   5.43413796E-02    -7.45211885E-31
   5.46413809E-02    -3.54398616E-32
   5.49413785E-02     9.15849466E-31
   5.52413799E-02     1.76219769E-30
   5.55413775E-02     2.11802509E-30
   5.58413789E-02     1.65921949E-30
   5.61413802E-02     2.23759464E-31
   5.64413778E-02    -2.11320895E-30
   5.67413792E-02    -5.01259530E-30
   5.70413806E-02    -7.90676696E-30
   5.73413782E-02    -1.00975100E-29
   5.76413795E-02    -1.09015647E-29
   5.79413809E-02    -9.81505734E-30
   5.82413785E-02    -6.65975215E-30
   5.85413799E-02    -1.67362748E-30
   5.88413775E-02     4.48298901E-30
   5.91413788E-02     1.08177469E-29
   5.94413802E-02     1.61832824E-29
   5.97413778E-02     1.95092144E-29
   6.00413792E-02     2.00405620E-29
   6.03413805E-02     1.75271361E-29
   6.06413782E-02     1.23141598E-29
   6.09413795E-02     5.30302215E-30
   6.12413809E-02    -2.22071760E-30
   6.15413785E-02    -8.86278730E-30
   6.18413799E-02    -1.34414683E-29
   6.21413775E-02    -1.52795819E-29
   6.24413788E-02    -1.43915642E-29
   6.27413765E-02    -1.15081032E-29
   6.30413815E-02    -7.91547577E-30
   6.33413792E-02    -5.13109641E-30
   6.36413768E-02    -4.48102697E-30
   6.39413819E-02    -6.67821174E-30
   6.42413795E-02    -1.15123433E-29
   6.45413771E-02    -1.77480132E-29
   6.48413822E-02    -2.32874541E-29
   6.51413798E-02    -2.55944715E-29
   6.54413775E-02    -2.23097242E-29
   6.57413825E-02    -1.19296705E-29
   6.60413802E-02     5.61194018E-30
   6.63413778E-02     2.86194634E-29
   6.66413829E-02     5.36857486E-29
   6.69413805E-02     7.61604483E-29
   6.72413781E-02     9.09839278E-29
   6.75413758E-02     9.37402706E-29
   6.78413808E-02     8.17125973E-29
   6.81413785E-02     5.46968558E-29
   6.84413761E-02     1.53591890E-29
   6.87413812E-02    -3.09955675E-29
   6.90413788E-02    -7.72529681E-29
   6.93413764E-02    -1.15785644E-28
   6.96413815E-02    -1.39965382E-28
   6.99413791E-02    -1.45564205E-28
   7.02413768E-02    -1.31713904E-28
   7.05413818E-02    -1.01169256E-28
   7.08413795E-02    -5.97635140E-29
   7.11413771E-02    -1.51302666E-29
   7.14413822E-02     2.50499855E-29
   7.17413798E-02     5.48810890E-29
   7.20413774E-02     7.17076982E-29
   7.23413825E-02     7.67964686E-29
   7.26413801E-02     7.49987875E-29
   7.29413778E-02     7.33864290E-29
   7.32413828E-02     7.91148188E-29
   7.35413805E-02     9.69966751E-29
   7.38413781E-02     1.27402312E-28
   7.41413757E-02     1.65097612E-28
   7.44413808E-02     1.99469744E-28
   7.47413784E-02     2.16299049E-28
   7.50413761E-02     2.00865321E-28
   7.53413811E-02     1.41812830E-28
   7.56413788E-02     3.49288370E-29
   7.59413764E-02    -1.14107642E-28
   7.62413815E-02    -2.88831473E-28
   7.65413791E-02    -4.63445237E-28
   7.68413767E-02    -6.06625081E-28
   7.71413818E-02    -6.87133719E-28
   7.74413794E-02    -6.80210819E-28
   7.77413771E-02    -5.73412900E-28
   7.80413821E-02    -3.70553255E-28
   7.83413798E-02    -9.26823753E-29
   7.86413774E-02     2.24386463E-28
   7.89413825E-02     5.35768625E-28
   7.92413801E-02     7.95431841E-28
   7.95413777E-02     9.64781895E-28
   7.98413828E-02     1.02007091E-27
   8.01413804E-02     9.56924871E-28
   8.04413781E-02     7.90834839E-28
   8.07413757E-02     5.53326606E-28
   8.10413808E-02     2.84523673E-28
   8.13413784E-02     2.37368112E-29
   8.16413760E-02    -1.99695692E-28
   8.19413811E-02    -3.72992950E-28
   8.22413787E-02    -5.02085940E-28
   8.25413764E-02    -6.08457266E-28
   8.28413814E-02    -7.21071060E-28
   8.31413791E-02    -8.65118101E-28
   8.34413767E-02    -1.05032949E-27
   8.37413818E-02    -1.26205939E-27
   8.40413794E-02    -1.45803759E-27
   8.43413770E-02    -1.57262156E-27
   8.46413821E-02    -1.52872365E-27
   8.49413797E-02    -1.25567743E-27
   8.52413774E-02    -7.09574318E-28
   8.55413824E-02     1.08510889E-28
   8.58413801E-02     1.14113901E-27
   8.61413777E-02     2.27375790E-27
   8.64413828E-02     3.34641267E-27
   8.67413804E-02     4.17713097E-27
   8.70413780E-02     4.59345115E-27
   8.73413756E-02     4.46634286E-27
   8.76413807E-02     3.73958973E-27
   8.79413784E-02     2.44799409E-27
   8.82413760E-02     7.19567487E-28
   8.85413811E-02    -1.24007933E-27
   8.88413787E-02    -3.17921537E-27
   8.91413763E-02    -4.84181908E-27
   8.94413814E-02    -6.01161968E-27
   8.97413790E-02    -6.54923032E-27
   9.00413767E-02    -6.41429350E-27
   9.03413817E-02    -5.66749491E-27
   9.06413794E-02    -4.45163877E-27
   9.09413770E-02    -2.95579903E-27
   9.12413821E-02    -1.37070283E-27
   9.15413797E-02     1.53939364E-28
   9.18413773E-02     1.53938232E-27
   9.21413824E-02     2.78679405E-27
   9.24413800E-02     3.96171108E-27
   9.27413777E-02     5.15656572E-27
   9.30413827E-02     6.43983865E-27
   9.33413804E-02     7.80483957E-27
   9.36413780E-02     9.13278291E-27
   9.39413756E-02     1.01830187E-26
   9.42413807E-02     1.06180385E-26
   9.45413783E-02     1.00631457E-26
   9.48413759E-02     8.19199232E-27
   9.51413810E-02     4.82152286E-27
   9.54413787E-02    -4.79291477E-30
   9.57413763E-02    -5.96688996E-27
   9.60413814E-02    -1.24679458E-26
   9.63413790E-02    -1.86918589E-26
   9.66413766E-02    -2.37142481E-26
   9.69413817E-02    -2.66506580E-26
   9.72413793E-02    -2.68158412E-26
   9.75413769E-02    -2.38629777E-26
   9.78413820E-02    -1.78730752E-26
   9.81413797E-02    -9.37279923E-27
   9.84413773E-02     7.27601985E-28
   9.87413824E-02     1.12683835E-26
   9.90413800E-02     2.10228797E-26
   9.93413776E-02     2.88935806E-26
   9.96413827E-02     3.40822763E-26
   9.99413803E-02     3.61990089E-26
  0.100241378         3.52868052E-26
  0.100541383         3.17574539E-26
  0.100841381         2.62538702E-26
  0.101141378         1.94724306E-26
  0.101441376         1.19895995E-26
  0.101741381         4.13814437E-27
  0.102041379        -4.03180260E-27
  0.102341376        -1.26910009E-26
  0.102641381        -2.20780381E-26
  0.102941379        -3.22893310E-26
  0.103241377        -4.30658119E-26
  0.103541382        -5.36377591E-26
  0.103841379        -6.26830354E-26
  0.104141377        -6.84332460E-26
  0.104441382        -6.89310911E-26
  0.104741380        -6.24059111E-26
  0.105041377        -4.77016578E-26
  0.105341382        -2.46698869E-26
  0.105641380         5.56414180E-27
  0.105941378         4.05382122E-26
  0.106241383         7.66347370E-26
  0.106541380         1.09501979E-25
  0.106841378         1.34659530E-25
  0.107141383         1.48189555E-25
  0.107441381         1.47389601E-25
  0.107741378         1.31261611E-25
  0.108041376         1.00736570E-25
  0.108341381         5.85826289E-26
  0.108641379         9.00560297E-27
  0.108941376        -4.29859244E-26
  0.109241381        -9.23288658E-26
  0.109541379        -1.34619471E-25
  0.109841377        -1.66651069E-25
  0.110141382        -1.86671903E-25
  0.110441379        -1.94322547E-25
  0.110741377        -1.90286772E-25
  0.111041382        -1.75760083E-25
  0.111341380        -1.51888252E-25
  0.111641377        -1.19341294E-25
  0.111941382        -7.81616882E-26
  0.112241380        -2.79610577E-26
  0.112541378         3.15495736E-26
  0.112841383         9.98052273E-26
  0.113141380         1.74595700E-25
  0.113441378         2.51465215E-25
  0.113741383         3.23520732E-25
  0.114041381         3.81801924E-25
  0.114341378         4.16256558E-25
  0.114641376         4.17230751E-25
  0.114941381         3.77252982E-25
  0.115241379         2.92792726E-25
  0.115541376         1.65634733E-25
  0.115841381         3.54347652E-27
  0.116141379        -1.80001714E-25
  0.116441377        -3.67059223E-25
  0.116741382        -5.37334775E-25
  0.117041379        -6.70841249E-25
  0.117341377        -7.50675452E-25
  0.117641382        -7.65432328E-25
  0.117941380        -7.10824960E-25
  0.118241377        -5.90219418E-25
  0.118541382        -4.13994154E-25
  0.118841380        -1.97866086E-25
  0.119141378         3.94726553E-26
  0.119441383         2.78927559E-25
  0.119741380         5.03269099E-25
  0.120041378         6.98663387E-25
  0.120341383         8.55212883E-25
  0.120641381         9.66500154E-25
  0.120941378         1.02837870E-24
  0.121241376         1.03745967E-24
  0.121541381         9.89842745E-25
  0.121841379         8.80604738E-25
  0.122141376         7.04394462E-25
  0.122441381         4.57200953E-25
  0.122741379         1.39039816E-25
  0.123041376        -2.43004608E-25
  0.123341382        -6.72145434E-25
  0.123641379        -1.12048235E-24
  0.123941377        -1.54948877E-24
  0.124241382        -1.91276011E-24
  0.124541380        -2.16095034E-24
  0.124841377        -2.24834686E-24
  0.125141382        -2.14011929E-24
  0.125441372        -1.81901701E-24
  0.125741377        -1.29025498E-24
  0.126041383        -5.83544866E-25
  0.126341373         2.48328852E-25
  0.126641378         1.13439766E-24
  0.126941383         1.99324187E-24
  0.127241373         2.74241064E-24
  0.127541378         3.30803910E-24
  0.127841383         3.63313006E-24
  0.128141373         3.68321957E-24
  0.128441378         3.44867229E-24
  0.128741384         2.94351989E-24
  0.129041374         2.20143863E-24
  0.129341379         1.27002602E-24
  0.129641384         2.04798139E-25
  0.129941374        -9.35715942E-25
  0.130241379        -2.09280440E-24
  0.130541384        -3.20800897E-24
  0.130841374        -4.22160057E-24
  0.131141379        -5.07023268E-24
  0.131441385        -5.68533869E-24
  0.131741375        -5.99390005E-24
  0.132041380        -5.92282250E-24
  0.132341385        -5.40737408E-24
  0.132641375        -4.40309775E-24
  0.132941380        -2.89953083E-24
  0.133241385        -9.33203124E-25
  0.133541375         1.40306909E-24
  0.133841380         3.95741145E-24
  0.134141386         6.52468866E-24
  0.134441376         8.86161218E-24
  0.134741381         1.07102651E-23
  0.135041386         1.18275044E-23
  0.135341376         1.20163703E-23
  0.135641381         1.11548939E-23
  0.135941386         9.21775448E-24
  0.136241376         6.28710900E-24
  0.136541381         2.55051668E-24
  0.136841387        -1.71413243E-24
  0.137141377        -6.16471447E-24
  0.137441382        -1.04283073E-23
  0.137741372        -1.41372536E-23
  0.138041377        -1.69629833E-23
  0.138341382        -1.86434764E-23
  0.138641372        -1.90017328E-23
  0.138941377        -1.79544931E-23
  0.139241382        -1.55123060E-23
  0.139541373        -1.17734319E-23
  0.139841378        -6.91476105E-24
  0.140141383        -1.18255939E-24
  0.140441373         5.11519026E-24
  0.140741378         1.16148314E-23
  0.141041383         1.79032109E-23
  0.141341373         2.35271470E-23
  0.141641378         2.80098948E-23
  0.141941383         3.08777482E-23
  0.142241374         3.16980720E-23
  0.142541379         3.01274752E-23
  0.142841384         2.59656565E-23
  0.143141374         1.92075924E-23
  0.143441379         1.00849611E-23
  0.143741384        -9.12740959E-25
  0.144041374        -1.30453431E-23
  0.144341379        -2.53620311E-23
  0.144641384        -3.67741332E-23
  0.144941375        -4.61552324E-23
  0.145241380        -5.24580953E-23
  0.145541385        -5.48342011E-23
  0.145841375        -5.27401415E-23
  0.146141380        -4.60158533E-23
  0.146441385        -3.49233740E-23
  0.146741375        -2.01398777E-23
  0.147041380        -2.70550438E-24
  0.147341385         1.60672901E-23
  0.147641376         3.47108612E-23
  0.147941381         5.17310211E-23
  0.148241386         6.57318539E-23
  0.148541376         7.55235551E-23
  0.148841381         8.02045358E-23
  0.149141386         7.92142440E-23
  0.149441376         7.23583991E-23
  0.149741381         5.98121407E-23
  0.150041386         4.21083033E-23
  0.150341377         2.01171411E-23
  0.150641382        -4.97881987E-24
  0.150941372        -3.17157236E-23
  0.151241377        -5.83899696E-23
  0.151541382        -8.31184555E-23
  0.151841372        -1.03925792E-22
  0.152141377        -1.18864299E-22
  0.152441382        -1.26166841E-22
  0.152741373        -1.24424658E-22
  0.153041378        -1.12774343E-22
  0.153341383        -9.10699273E-23
  0.153641373        -6.00129594E-23
  0.153941378        -2.12128941E-23
  0.154241383         2.28438877E-23
  0.154541373         6.89278828E-23
  0.154841378         1.13300734E-22
  0.155141383         1.52032442E-22
  0.155441374         1.81370166E-22
  0.155741379         1.98117317E-22
  0.156041384         1.99977691E-22
  0.156341374         1.85822068E-22
  0.156641379         1.55844306E-22
  0.156941384         1.11588250E-22
  0.157241374         5.58442145E-23
  0.157541379        -7.56973806E-24
  0.157841384        -7.41128068E-23
  0.158141375        -1.38876122E-22
  0.158441380        -1.96948793E-22
  0.158741385        -2.43762513E-22
  0.159041375        -2.75390963E-22
  0.159341380        -2.88792536E-22
  0.159641385        -2.81995357E-22
  0.159941375        -2.54231442E-22