  -8.27586204E-02     0.00000000    
  -8.24586228E-02     0.00000000    
  -8.21586177E-02     0.00000000    
  -8.18586200E-02     0.00000000    
  -8.15586224E-02     0.00000000    
  -8.12586173E-02     0.00000000    
  -8.09586197E-02     0.00000000    
  -8.06586221E-02     0.00000000    
  -8.03586170E-02     0.00000000    
  -8.00586194E-02     0.00000000    
  -7.97586218E-02     0.00000000    
  -7.94586241E-02     0.00000000    
  -7.91586190E-02     0.00000000    
  -7.88586214E-02     0.00000000    
  -7.85586238E-02     0.00000000    
  -7.82586187E-02     0.00000000    
  -7.79586211E-02     0.00000000    
  -7.76586235E-02     0.00000000    
  -7.73586184E-02     0.00000000    
  -7.70586208E-02     0.00000000    
  -7.67586231E-02     0.00000000    
  -7.64586180E-02     0.00000000    
  -7.61586204E-02     0.00000000    
  -7.58586228E-02     0.00000000    
  -7.55586177E-02     0.00000000    
  -7.52586201E-02     0.00000000    
  -7.49586225E-02     0.00000000    
  -7.46586174E-02     0.00000000    
  -7.43586197E-02     0.00000000    
  -7.40586221E-02     0.00000000    
  -7.37586170E-02     0.00000000    
  -7.34586194E-02     0.00000000    
  -7.31586218E-02     0.00000000    
  -7.28586242E-02     0.00000000    
  -7.25586191E-02     0.00000000    
  -7.22586215E-02     0.00000000    
  -7.19586238E-02     0.00000000    
  -7.16586187E-02     0.00000000    
  -7.13586211E-02     0.00000000    
  -7.10586235E-02     0.00000000    
  -7.07586184E-02     0.00000000    
  -7.04586208E-02     0.00000000    
  -7.01586232E-02     0.00000000    
  -6.98586181E-02     0.00000000    
  -6.95586205E-02     0.00000000    
  -6.92586228E-02     0.00000000    
  -6.89586177E-02     0.00000000    
  -6.86586201E-02     0.00000000    
  -6.83586225E-02     0.00000000    
  -6.80586174E-02     0.00000000    
  -6.77586198E-02     0.00000000    
  -6.74586222E-02     0.00000000    
  -6.71586171E-02     0.00000000    
  -6.68586195E-02     0.00000000    
  -6.65586218E-02     0.00000000    
  -6.62586242E-02     0.00000000    
  -6.59586191E-02     0.00000000    
  -6.56586215E-02     0.00000000    
  -6.53586239E-02     0.00000000    
  -6.50586188E-02     0.00000000    
  -6.47586212E-02     0.00000000    
  -6.44586235E-02     0.00000000    
  -6.41586185E-02     0.00000000    
  -6.38586208E-02     0.00000000    
  -6.35586232E-02     0.00000000    
  -6.32586181E-02     0.00000000    
  -6.29586205E-02     0.00000000    
  -6.26586229E-02     0.00000000    
  -6.23586215E-02     0.00000000    
  -6.20586202E-02     0.00000000    
  -6.17586225E-02     0.00000000    
  -6.14586212E-02     0.00000000    
  -6.11586198E-02     0.00000000    
  -6.08586222E-02     0.00000000    
  -6.05586208E-02     0.00000000    
  -6.02586195E-02     0.00000000    
  -5.99586219E-02     0.00000000    
  -5.96586205E-02     0.00000000    
  -5.93586192E-02     0.00000000    
  -5.90586215E-02     0.00000000    
  -5.87586202E-02     0.00000000    
  -5.84586225E-02     0.00000000    
  -5.81586212E-02     0.00000000    
  -5.78586198E-02     0.00000000    
  -5.75586222E-02     0.00000000    
  -5.72586209E-02     0.00000000    
  -5.69586195E-02     0.00000000    
  -5.66586219E-02     0.00000000    
  -5.63586205E-02     0.00000000    
  -5.60586192E-02     0.00000000    
  -5.57586215E-02     0.00000000    
  -5.54586202E-02     0.00000000    
  -5.51586188E-02     0.00000000    
  -5.48586212E-02     0.00000000    
  -5.45586199E-02     0.00000000    
  -5.42586222E-02     0.00000000    
  -5.39586209E-02     0.00000000    
  -5.36586195E-02     0.00000000    
  -5.33586219E-02     0.00000000    
  -5.30586205E-02     0.00000000    
  -5.27586192E-02     0.00000000    
  -5.24586216E-02     0.00000000    
  -5.21586202E-02     0.00000000    
  -5.18586189E-02     0.00000000    
  -5.15586212E-02     0.00000000    
  -5.12586199E-02     0.00000000    
  -5.09586222E-02     0.00000000    
  -5.06586209E-02     0.00000000    
  -5.03586195E-02     0.00000000    
  -5.00586219E-02     0.00000000    
  -4.97586206E-02     0.00000000    
  -4.94586192E-02     0.00000000    
  -4.91586216E-02     0.00000000    
  -4.88586202E-02     0.00000000    
  -4.85586189E-02     0.00000000    
  -4.82586212E-02     0.00000000    
  -4.79586199E-02     0.00000000    
  -4.76586223E-02     0.00000000    
  -4.73586209E-02     0.00000000    
  -4.70586196E-02     0.00000000    
  -4.67586219E-02     0.00000000    
  -4.64586206E-02     0.00000000    
  -4.61586192E-02     0.00000000    
  -4.58586216E-02     0.00000000    
  -4.55586202E-02     0.00000000    
  -4.52586189E-02     0.00000000    
  -4.49586213E-02     0.00000000    
  -4.46586199E-02     0.00000000    
  -4.43586223E-02     0.00000000    
  -4.40586209E-02     0.00000000    
  -4.37586196E-02     0.00000000    
  -4.34586219E-02     0.00000000    
  -4.31586206E-02     0.00000000    
  -4.28586192E-02     0.00000000    
  -4.25586216E-02     0.00000000    
  -4.22586203E-02     0.00000000    
  -4.19586189E-02     0.00000000    
  -4.16586213E-02     0.00000000    
  -4.13586199E-02     0.00000000    
  -4.10586223E-02     0.00000000    
  -4.07586209E-02     0.00000000    
  -4.04586196E-02     0.00000000    
  -4.01586220E-02     0.00000000    
  -3.98586206E-02     0.00000000    
  -3.95586193E-02     0.00000000    
  -3.92586216E-02     0.00000000    
  -3.89586203E-02     0.00000000    
  -3.86586189E-02     0.00000000    
  -3.83586213E-02     0.00000000    
  -3.80586199E-02     0.00000000    
  -3.77586223E-02     0.00000000    
  -3.74586210E-02     0.00000000    
  -3.71586196E-02     0.00000000    
  -3.68586220E-02     0.00000000    
  -3.65586206E-02     0.00000000    
  -3.62586193E-02     0.00000000    
  -3.59586217E-02     0.00000000    
  -3.56586203E-02     0.00000000    
  -3.53586189E-02     0.00000000    
  -3.50586213E-02     0.00000000    
  -3.47586200E-02     0.00000000    
  -3.44586223E-02     0.00000000    
  -3.41586210E-02     0.00000000    
  -3.38586196E-02     0.00000000    
  -3.35586220E-02     0.00000000    
  -3.32586206E-02     0.00000000    
  -3.29586193E-02     0.00000000    
  -3.26586217E-02     0.00000000    
  -3.23586203E-02     0.00000000    
  -3.20586190E-02     0.00000000    
  -3.17586213E-02     0.00000000    
  -3.14586200E-02     0.00000000    
  -3.11586205E-02     0.00000000    
  -3.08586210E-02     0.00000000    
  -3.05586215E-02     0.00000000    
  -3.02586202E-02     0.00000000    
  -2.99586207E-02     0.00000000    
  -2.96586212E-02     0.00000000    
  -2.93586198E-02     0.00000000    
  -2.90586203E-02     0.00000000    
  -2.87586208E-02     0.00000000    
  -2.84586214E-02     0.00000000    
  -2.81586200E-02     0.00000000    
  -2.78586205E-02     0.00000000    
  -2.75586210E-02     0.00000000    
  -2.72586215E-02     0.00000000    
  -2.69586202E-02     0.00000000    
  -2.66586207E-02     0.00000000    
  -2.63586212E-02     0.00000000    
  -2.60586198E-02     0.00000000    
  -2.57586204E-02     0.00000000    
  -2.54586209E-02     0.00000000    
  -2.51586214E-02     0.00000000    
  -2.48586200E-02     0.00000000    
  -2.45586205E-02     0.00000000    
  -2.42586210E-02     0.00000000    
  -2.39586215E-02     0.00000000    
  -2.36586202E-02     0.00000000    
  -2.33586207E-02     0.00000000    
  -2.30586212E-02     0.00000000    
  -2.27586199E-02     0.00000000    
  -2.24586204E-02     0.00000000    
  -2.21586209E-02     0.00000000    
  -2.18586214E-02     0.00000000    
  -2.15586200E-02     0.00000000    
  -2.12586205E-02     0.00000000    
  -2.09586211E-02     0.00000000    
  -2.06586216E-02     0.00000000    
  -2.03586202E-02     0.00000000    
  -2.00586207E-02     0.00000000    
  -1.97586212E-02     0.00000000    
  -1.94586199E-02     0.00000000    
  -1.91586204E-02     0.00000000    
  -1.88586209E-02     0.00000000    
  -1.85586214E-02     0.00000000    
  -1.82586201E-02     0.00000000    
  -1.79586206E-02     0.00000000    
  -1.76586211E-02     0.00000000    
  -1.73586216E-02     0.00000000    
  -1.70586202E-02     0.00000000    
  -1.67586207E-02     0.00000000    
  -1.64586212E-02     0.00000000    
  -1.61586199E-02     0.00000000    
  -1.58586204E-02     0.00000000    
  -1.55586209E-02     0.00000000    
  -1.52586205E-02     0.00000000    
  -1.49586210E-02     0.00000000    
  -1.46586206E-02     0.00000000    
  -1.43586211E-02     0.00000000    
  -1.40586207E-02     0.00000000    
  -1.37586202E-02     0.00000000    
  -1.34586208E-02     0.00000000    
  -1.31586203E-02     0.00000000    
  -1.28586208E-02     0.00000000    
  -1.25586204E-02     0.00000000    
  -1.22586209E-02     0.00000000    
  -1.19586205E-02    -0.00000000    
  -1.16586210E-02    -0.00000000    
  -1.13586206E-02    -1.68021529E-38
  -1.10586211E-02    -2.41336918E-38
  -1.07586207E-02    -2.76693865E-38
  -1.04586203E-02    -2.63430519E-38
  -1.01586208E-02    -1.95511936E-38
  -9.85862035E-03    -0.00000000    
  -9.55862086E-03     0.00000000    
  -9.25862044E-03     3.18599107E-38
  -8.95862095E-03     6.11972543E-38
  -8.65862053E-03     9.17980759E-38
  -8.35862104E-03     1.16539245E-37
  -8.05862062E-03     1.27030273E-37
  -7.75862066E-03     1.13890622E-37
  -7.45862070E-03     7.25108000E-38
  -7.15862075E-03     0.00000000    
  -6.85862079E-03    -7.81783068E-38
  -6.55862084E-03    -1.89774779E-37
  -6.25862088E-03    -3.09681064E-37
  -5.95862046E-03    -4.12160801E-37
  -5.65862050E-03    -4.69164636E-37
  -5.35862055E-03    -4.55325367E-37
  -5.05862059E-03    -3.59425814E-37
  -4.75862063E-03    -1.77926700E-37
  -4.45862068E-03     7.37100873E-38
  -4.15862072E-03     3.62362129E-37
  -3.85862077E-03     6.45538876E-37
  -3.55862058E-03     8.71470161E-37
  -3.25862062E-03     9.92512035E-37
  -2.95862067E-03     9.74864553E-37
  -2.65862071E-03     8.07064600E-37
  -2.35862075E-03     5.05600010E-37
  -2.05862080E-03     1.07851822E-37
  -1.75862073E-03    -3.26657402E-37
  -1.45862065E-03    -7.29268096E-37
  -1.15862070E-03    -1.03592493E-36
  -8.58620682E-04    -1.19997443E-36
  -5.58620668E-04    -1.20253811E-36
  -2.58620683E-04    -1.04995281E-36
   4.13793096E-05    -7.82251169E-37
   3.41379317E-04    -4.44365689E-37
   6.41379331E-04    -7.70333339E-38
   9.41379287E-04     3.00589395E-37
   1.24137930E-03     6.99700161E-37
   1.54137926E-03     1.15676834E-36
   1.84137933E-03     1.71168971E-36
   2.14137929E-03     2.36962933E-36
   2.44137924E-03     3.07059407E-36
   2.74137920E-03     3.65061343E-36
   3.04137939E-03     3.83262457E-36
   3.34137934E-03     3.26051418E-36
   3.64137930E-03     1.56572006E-36
   3.94137949E-03    -1.51188580E-36
   4.24137944E-03    -5.99392741E-36
   4.54137940E-03    -1.15355987E-35
   4.84137936E-03    -1.73478501E-35
   5.14137931E-03    -2.22082609E-35
   5.44137927E-03    -2.45879496E-35
   5.74137922E-03    -2.29051905E-35
   6.04137918E-03    -1.58790116E-35
   6.34137914E-03    -2.92767257E-36
   6.64137909E-03     1.54752253E-35
   6.94137951E-03     3.75781896E-35
   7.24137947E-03     6.03525260E-35
   7.54137943E-03     7.97703553E-35
   7.84137938E-03     9.13628189E-35
   8.14137887E-03     9.09952473E-35
   8.44137929E-03     7.57342484E-35
   8.74137972E-03     4.46358508E-35
   9.04137921E-03    -7.26228871E-37
   9.34137963E-03    -5.61428442E-35
   9.64137912E-03    -1.15142415E-34
   9.94137954E-03    -1.69832382E-34
   1.02413790E-02    -2.12077433E-34
   1.05413795E-02    -2.34789959E-34
   1.08413789E-02    -2.33062808E-34
   1.11413794E-02    -2.04889630E-34
   1.14413789E-02    -1.51308014E-34
   1.17413793E-02    -7.59412226E-35
   1.20413797E-02     1.59184019E-35
   1.23413792E-02     1.18394299E-34
   1.26413796E-02     2.25909397E-34
   1.29413791E-02     3.33516515E-34
   1.32413795E-02     4.36474874E-34
   1.35413790E-02     5.29093543E-34
   1.38413794E-02     6.03162360E-34
   1.41413789E-02     6.46542923E-34
   1.44413793E-02     6.42649006E-34
   1.47413798E-02     5.71496609E-34
   1.50413793E-02     4.12751653E-34
   1.53413797E-02     1.50732240E-34
   1.56413801E-02    -2.19269783E-34
   1.59413796E-02    -6.84575859E-34
   1.62413791E-02    -1.21026795E-33
   1.65413786E-02    -1.73765120E-33
   1.68413799E-02    -2.18746421E-33
   1.71413794E-02    -2.46850691E-33
   1.74413789E-02    -2.49123657E-33
   1.77413784E-02    -2.18462650E-33
   1.80413797E-02    -1.51345467E-33
   1.83413792E-02    -4.92491679E-34
   1.86413787E-02     8.05928753E-34
   1.89413801E-02     2.25368256E-33
   1.92413796E-02     3.67911622E-33
   1.95413791E-02     4.88886447E-33
   1.98413786E-02     5.69612053E-33
   2.01413799E-02     5.95049787E-33
   2.04413794E-02     5.56375362E-33
   2.07413789E-02     4.52600994E-33
   2.10413802E-02     2.90876279E-33
   2.13413797E-02     8.53685783E-34
   2.16413792E-02    -1.45055819E-33
   2.19413787E-02    -3.79831098E-33
   2.22413801E-02    -5.99663198E-33
   2.25413796E-02    -7.88740620E-33
   2.28413790E-02    -9.35626794E-33
   2.31413785E-02    -1.03262675E-32
   2.34413799E-02    -1.07387544E-32
   2.37413794E-02    -1.05284415E-32
   2.40413789E-02    -9.60274559E-33
   2.43413802E-02    -7.83614803E-33
   2.46413797E-02    -5.08783159E-33
   2.49413792E-02    -1.24530081E-33
   2.52413787E-02     3.71094236E-33
   2.55413800E-02     9.63465439E-33
   2.58413795E-02     1.61523371E-32
   2.61413790E-02     2.26347623E-32
   2.64413785E-02     2.82205043E-32
   2.67413799E-02     3.19020027E-32
   2.70413794E-02     3.26715137E-32
   2.73413789E-02     2.97089564E-32
   2.76413802E-02     2.25795670E-32
   2.79413797E-02     1.14000838E-32
   2.82413792E-02    -3.06873582E-33
   2.85413787E-02    -1.94366566E-32
   2.88413800E-02    -3.58206777E-32
   2.91413795E-02    -5.00944264E-32
   2.94413790E-02    -6.02143043E-32
   2.97413785E-02    -6.45648089E-32
   3.00413799E-02    -6.22540927E-32
   3.03413793E-02    -5.32937871E-32
   3.06413788E-02    -3.86164441E-32
   3.09413802E-02    -1.99158601E-32
   3.12413797E-02     6.64872140E-34
   3.15413810E-02     2.09350724E-32
   3.18413787E-02     3.90587709E-32
   3.21413800E-02     5.38610277E-32
   3.24413776E-02     6.49575533E-32
   3.27413790E-02     7.26654167E-32
   3.30413803E-02     7.77061011E-32
   3.33413780E-02     8.07698978E-32
   3.36413793E-02     8.20569289E-32
   3.39413807E-02     8.09328860E-32
   3.42413783E-02     7.58259273E-32
   3.45413797E-02     6.44447028E-32
   3.48413810E-02     4.43216001E-32
   3.51413786E-02     1.35968770E-32
   3.54413800E-02    -2.81224269E-32
   3.57413776E-02    -7.90459002E-32
   3.60413790E-02    -1.34846834E-31
   3.63413803E-02    -1.88841933E-31
   3.66413780E-02    -2.32769346E-31
   3.69413793E-02    -2.58093985E-31
   3.72413807E-02    -2.57628912E-31
   3.75413783E-02    -2.27152035E-31
   3.78413796E-02    -1.66649822E-31
   3.81413810E-02    -8.08562085E-32
   3.84413786E-02     2.11246870E-32
   3.87413800E-02     1.27133675E-31
   3.90413776E-02     2.24013559E-31
   3.93413790E-02     3.00012913E-31
   3.96413803E-02     3.47016606E-31
   3.99413779E-02     3.62067424E-31
   4.02413793E-02     3.47761282E-31
   4.05413806E-02     3.11331536E-31
   4.08413783E-02     2.62546710E-31
   4.11413796E-02     2.10860858E-31
   4.14413810E-02     1.62498235E-31
   4.17413786E-02     1.18254579E-31
   4.20413800E-02     7.27112610E-32
   4.23413776E-02     1.52827725E-32
   4.26413789E-02    -6.69029436E-32
   4.29413803E-02    -1.84771949E-31
   4.32413779E-02    -3.42626840E-31
   4.35413793E-02    -5.34190995E-31
   4.38413806E-02    -7.40545501E-31
   4.41413783E-02    -9.30843131E-31
   4.44413796E-02    -1.06613999E-30
   4.47413810E-02    -1.10597797E-30
   4.50413786E-02    -1.01664058E-30
   4.53413799E-02    -7.79456433E-31
   4.56413776E-02    -3.97287797E-31
   4.59413789E-02     1.02471898E-31
   4.62413803E-02     6.69476241E-31
   4.65413779E-02     1.23674410E-30
   4.68413793E-02     1.73082892E-30
   4.71413806E-02     2.08399500E-30
   4.74413782E-02     2.24594502E-30
   4.77413796E-02     2.19255576E-30
   4.80413809E-02     1.92958526E-30
   4.83413786E-02     1.49035521E-30
   4.86413799E-02     9.27779417E-31
   4.89413776E-02     3.02503738E-31
   4.92413789E-02    -3.30011082E-31
   4.95413803E-02    -9.30179306E-31
   4.98413779E-02    -1.47981517E-30
   5.01413792E-02    -1.98069500E-30
   5.04413806E-02    -2.44608601E-30
   5.07413782E-02    -2.88710741E-30
   5.10413796E-02    -3.29746892E-30
   5.13413809E-02    -3.64108378E-30
   5.16413786E-02    -3.84694877E-30
   5.19413799E-02    -3.81442538E-30
   5.22413775E-02    -3.42977767E-30
   5.25413789E-02    -2.59202993E-30
   5.28413802E-02    -1.24345692E-30
   5.31413779E-02     6.01937038E-31
   5.34413792E-02     2.83921458E-30
   5.37413806E-02     5.26878573E-30
   5.40413782E-02     7.61170471E-30
   5.43413796E-02     9.54368328E-30
   5.46413809E-02     1.07432736E-29
   5.49413785E-02     1.09460168E-29
   5.52413799E-02     9.99419290E-30
   5.55413775E-02     7.87178575E-30
   5.58413789E-02     4.71661221E-30
   5.61413802E-02     8.05950618E-31
   5.64413778E-02    -3.48248157E-30
   5.67413792E-02    -7.72687081E-30
   5.70413806E-02    -1.15235047E-29
   5.73413782E-02    -1.45416994E-29
   5.76413795E-02    -1.65597550E-29
   5.79413809E-02    -1.74745116E-29
   5.82413785E-02    -1.72835887E-29
   5.85413799E-02    -1.60464405E-29
   5.88413775E-02    -1.38364389E-29
   5.91413788E-02    -1.06994316E-29
   5.94413802E-02    -6.63374457E-30
   5.97413778E-02    -1.60191254E-30
   6.00413792E-02     4.42359401E-30
   6.03413805E-02     1.13881381E-29
   6.06413782E-02     1.90727837E-29
   6.09413795E-02     2.70250913E-29
   6.12413809E-02     3.45269466E-29
   6.15413785E-02     4.06188827E-29
   6.18413799E-02     4.41903181E-29
   6.21413775E-02     4.41311138E-29
   6.24413788E-02     3.95250929E-29
   6.27413765E-02     2.98535873E-29
   6.30413815E-02     1.51700220E-29
   6.33413792E-02    -3.79268268E-30
   6.36413768E-02    -2.56113264E-29
   6.39413819E-02    -4.82717037E-29
   6.42413795E-02    -6.93713406E-29
   6.45413771E-02    -8.63992275E-29
   6.48413822E-02    -9.70502340E-29
   6.51413798E-02    -9.95244220E-29
   6.54413775E-02    -9.27635412E-29
   6.57413825E-02    -7.65892445E-29
   6.60413802E-02    -5.17267709E-29
   6.63413778E-02    -1.97202858E-29
   6.66413829E-02     1.72338095E-29
   6.69413805E-02     5.64961799E-29
   6.72413781E-02     9.51942755E-29
   6.75413758E-02     1.30398674E-28
   6.78413808E-02     1.59249827E-28
   6.81413785E-02     1.79041393E-28
   6.84413761E-02     1.87286444E-28
   6.87413812E-02     1.81806162E-28
   6.90413788E-02     1.60880512E-28
   6.93413764E-02     1.23485609E-28
   6.96413815E-02     6.96157411E-29
   6.99413791E-02     6.52586644E-31
   7.02413768E-02    -8.02894495E-29
   7.05413818E-02    -1.68137151E-28
   7.08413795E-02    -2.55853149E-28
   7.11413771E-02    -3.34735435E-28
   7.14413822E-02    -3.95065769E-28
   7.17413798E-02    -4.27091624E-28
   7.20413774E-02    -4.22258744E-28
   7.23413825E-02    -3.74548331E-28
   7.26413801E-02    -2.81727512E-28
   7.29413778E-02    -1.46303473E-28
   7.32413828E-02     2.40074224E-29
   7.35413805E-02     2.16432324E-28
   7.38413781E-02     4.13969445E-28
   7.41413757E-02     5.96847086E-28
   7.44413808E-02     7.44473613E-28
   7.47413784E-02     8.37658192E-28
   7.50413761E-02     8.60837722E-28
   7.53413811E-02     8.04035307E-28
   7.56413788E-02     6.64311064E-28
   7.59413764E-02     4.46532876E-28
   7.62413815E-02     1.63384461E-28
   7.65413791E-02    -1.65380315E-28
   7.68413767E-02    -5.14342077E-28
   7.71413818E-02    -8.54327020E-28
   7.74413794E-02    -1.15464180E-27
   7.77413771E-02    -1.38544910E-27
   7.80413821E-02    -1.52012399E-27
   7.83413798E-02    -1.53746439E-27
   7.86413774E-02    -1.42365974E-27
   7.89413825E-02    -1.17394347E-27
   7.92413801E-02    -7.93852145E-28
   7.95413777E-02    -3.00000302E-28
   7.98413828E-02     2.79752326E-28
   8.01413804E-02     9.06883240E-28
   8.04413781E-02     1.53369072E-27
   8.07413757E-02     2.10579890E-27
   8.10413808E-02     2.56573196E-27
   8.13413784E-02     2.85749147E-27
   8.16413760E-02     2.93191287E-27
   8.19413811E-02     2.75241428E-27
   8.22413787E-02     2.30058668E-27
   8.25413764E-02     1.58095304E-27
   8.28413814E-02     6.24182099E-28
   8.31413791E-02    -5.11921713E-28
   8.34413767E-02    -1.74417762E-27
   8.37413818E-02    -2.96880656E-27
   8.40413794E-02    -4.06916218E-27
   8.43413770E-02    -4.92596835E-27
   8.46413821E-02    -5.42921693E-27
   8.49413797E-02    -5.49057166E-27
   8.52413774E-02    -5.05488355E-27
   8.55413824E-02    -4.10938946E-27
   8.58413801E-02    -2.68927767E-27
   8.61413777E-02    -8.78640537E-28
   8.64413828E-02     1.19368059E-27
   8.67413804E-02     3.36326379E-27
   8.70413780E-02     5.44354508E-27
   8.73413756E-02     7.24223153E-27
   8.76413807E-02     8.57897251E-27
   8.79413784E-02     9.30238569E-27
   8.82413760E-02     9.30462439E-27
   8.85413811E-02     8.53200524E-27
   8.88413787E-02     6.99078134E-27
   8.91413763E-02     4.74781482E-27
   8.94413814E-02     1.92654759E-27
   8.97413790E-02    -1.30080794E-27
   9.00413767E-02    -4.72366097E-27
   9.03413817E-02    -8.10485940E-27
   9.06413794E-02    -1.11930634E-26
   9.09413770E-02    -1.37353148E-26
   9.12413821E-02    -1.54899726E-26
   9.15413797E-02    -1.62406061E-26
   9.18413773E-02    -1.58114966E-26
   9.21413824E-02    -1.40850961E-26
   9.24413800E-02    -1.10210432E-26
   9.27413777E-02    -6.67522311E-27
   9.30413827E-02    -1.21621003E-27
   9.33413804E-02     5.06458023E-27
   9.36413780E-02     1.17531046E-26
   9.39413756E-02     1.83270276E-26
   9.42413807E-02     2.41865509E-26
   9.45413783E-02     2.87019398E-26
   9.48413759E-02     3.12750346E-26
   9.51413810E-02     3.14090855E-26
   9.54413787E-02     2.87785240E-26
   9.57413763E-02     2.32889042E-26
   9.60413814E-02     1.51170324E-26
   9.63413790E-02     4.72317640E-27
   9.66413766E-02    -7.16942752E-27
   9.69413817E-02    -1.96279363E-26
   9.72413793E-02    -3.15911860E-26
   9.75413769E-02    -4.19694555E-26
   9.78413820E-02    -4.97500861E-26
   9.81413797E-02    -5.40952861E-26
   9.84413773E-02    -5.44200194E-26
   9.87413824E-02    -5.04414549E-26
   9.90413800E-02    -4.21967491E-26
   9.93413776E-02    -3.00316851E-26
   9.96413827E-02    -1.45673273E-26
   9.99413803E-02     3.34513809E-27
  0.100241378         2.26713740E-26
  0.100541383         4.22354742E-26
  0.100841381         6.07541904E-26
  0.101141378         7.68679871E-26
  0.101441376         8.91785683E-26
  0.101741381         9.63053842E-26
  0.102041379         9.69726126E-26
  0.102341376         9.01327942E-26
  0.102641381         7.51237109E-26
  0.102941379         5.18434703E-26
  0.103241377         2.09172632E-26
  0.103541382        -1.61791520E-26
  0.103841379        -5.70765209E-26
  0.104141377        -9.85816177E-26
  0.104441382        -1.36877819E-25
  0.104741380        -1.67854871E-25
  0.105041377        -1.87542436E-25
  0.105341382        -1.92598862E-25
  0.105641380        -1.80789355E-25
  0.105941378        -1.51380559E-25
  0.106241383        -1.05383263E-25
  0.106541380        -4.55937598E-26
  0.106841378         2.35873047E-26
  0.107141383         9.65444214E-26
  0.107441381         1.66997194E-25
  0.107741378         2.28635408E-25
  0.108041376         2.75750274E-25
  0.108341381         3.03775100E-25
  0.108641379         3.09667989E-25
  0.108941376         2.92099860E-25
  0.109241381         2.51450597E-25
  0.109541379         1.89650408E-25
  0.109841377         1.09929912E-25
  0.110141382         1.65507717E-26
  0.110441379        -8.54218586E-26
  0.110741377        -1.90271784E-25
  0.111041382        -2.91714748E-25
  0.111341380        -3.82957161E-25
  0.111641377        -4.56806079E-25
  0.111941382        -5.05915135E-25
  0.112241380        -5.23235217E-25
  0.112541378        -5.02697520E-25
  0.112841383        -4.40093962E-25
  0.113141380        -3.34052567E-25
  0.113441378        -1.86945724E-25
  0.113741383        -5.53412695E-27
  0.114041381         1.98847466E-25
  0.114341378         4.10709929E-25
  0.114641376         6.11496328E-25
  0.114941381         7.81282812E-25
  0.115241379         9.00921062E-25
  0.115541376         9.54347554E-25
  0.115841381         9.30722058E-25
  0.116141379         8.26056831E-25
  0.116441377         6.44057104E-25
  0.116741382         3.96011823E-25
  0.117041379         9.97306491E-26
  0.117341377        -2.22313576E-25
  0.117641382        -5.45339593E-25
  0.117941380        -8.44728133E-25
  0.118241377        -1.09822030E-24
  0.118541382        -1.28752878E-24
  0.118841380        -1.39918799E-24
  0.119141378        -1.42464680E-24
  0.119441383        -1.35978617E-24
  0.119741380        -1.20417793E-24
  0.120041378        -9.60453535E-25
  0.120341383        -6.34112329E-25
  0.120641381        -2.33955905E-25
  0.120941378         2.26869716E-25
  0.121241376         7.29475949E-25
  0.121541381         1.24792894E-24
  0.121841379         1.74860920E-24
  0.122141376         2.19078664E-24
  0.122441381         2.52880900E-24
  0.122741379         2.71602108E-24
  0.123041376         2.71016931E-24
  0.123341382         2.47967382E-24
  0.123641379         2.00985153E-24
  0.123941377         1.30801392E-24
  0.124241382         4.06400776E-25
  0.124541380        -6.37842803E-25
  0.124841377        -1.74601799E-24
  0.125141382        -2.82438966E-24
  0.125441372        -3.77316904E-24
  0.125741377        -4.49681166E-24
  0.126041383        -4.91422518E-24
  0.126341373        -4.96748079E-24
  0.126641378        -4.62786907E-24
  0.126941383        -3.89860581E-24
  0.127241373        -2.81409542E-24
  0.127541378        -1.43621998E-24
  0.127841383         1.51397680E-25
  0.128141373         1.85000149E-24
  0.128441378         3.55207500E-24
  0.128741384         5.14670841E-24
  0.129041374         6.52370180E-24
  0.129341379         7.57673447E-24
  0.129641384         8.20639851E-24
  0.129941374         8.32414862E-24
  0.130241379         7.85811090E-24
  0.130541384         6.76122821E-24
  0.130841374         5.02147279E-24
  0.131141379         2.67295184E-24
  0.131441385        -1.94104624E-25
  0.131741375        -3.42702003E-24
  0.132041380        -6.81063457E-24
  0.132341385        -1.00756660E-23
  0.132641375        -1.29164913E-23
  0.132941380        -1.50178622E-23
  0.133241385        -1.60883606E-23
  0.133541375        -1.58968331E-23
  0.133841380        -1.43069723E-23
  0.134141386        -1.13047996E-23
  0.134441376        -7.01434843E-24
  0.134741381        -1.69820355E-24
  0.135041386         4.25840330E-24
  0.135341376         1.03788410E-23
  0.135641381         1.61382671E-23
  0.135941386         2.10135348E-23
  0.136241376         2.45336325E-23
  0.136541381         2.63245061E-23
  0.136841387         2.61432464E-23
  0.137141377         2.38984228E-23
  0.137441382         1.96556859E-23
  0.137741372         1.36299734E-23
  0.138041377         6.16735361E-24
  0.138341382        -2.27961494E-24
  0.138641372        -1.11792303E-23
  0.138941377        -1.99480614E-23
  0.139241382        -2.79773433E-23
  0.139541373        -3.46590867E-23
  0.139841378        -3.94139174E-23
  0.140141383        -4.17231152E-23
  0.140441373        -4.11666211E-23
  0.140741378        -3.74669203E-23
  0.141041383        -3.05361241E-23
  0.141341373        -2.05206640E-23
  0.141641378        -7.83562994E-24
  0.141941383         6.82028944E-24
  0.142241374         2.24778168E-23
  0.142541379         3.79438814E-23
  0.142841384         5.18837541E-23
  0.143141374         6.29344016E-23
  0.143441379         6.98392317E-23
  0.143741384         7.15893922E-23
  0.144041374         6.75536303E-23
  0.144341379         5.75786419E-23
  0.144641384         4.20441753E-23
  0.144941375         2.18628098E-23
  0.145241380        -1.57844421E-24
  0.145541385        -2.65293418E-23
  0.145841375        -5.10276475E-23
  0.146141380        -7.30722298E-23
  0.146441385        -9.07974611E-23
  0.146741375        -1.02629283E-22
  0.147041380        -1.07407603E-22
  0.147341385        -1.04465966E-22
  0.147641376        -9.36670657E-23
  0.147941381        -7.53987005E-23
  0.148241386        -5.05399232E-23
  0.148541376        -2.04083191E-23
  0.148841381         1.33021986E-23
  0.149141386         4.85880226E-23
  0.149441376         8.32073570E-23
  0.149741381         1.14762550E-22
  0.150041386         1.40802357E-22
  0.150341377         1.58953011E-22
  0.150641382         1.67083201E-22
  0.150941372         1.63499930E-22
  0.151241377         1.47162280E-22
  0.151541382         1.17889822E-22
  0.151841372         7.65343321E-23
  0.152141377         2.50798950E-23
  0.152441382        -3.33604165E-23
  0.152741373        -9.46739046E-23
  0.153041378        -1.54010678E-22
  0.153341383        -2.06166791E-22
  0.153641373        -2.46056091E-22
  0.153941378        -2.69221743E-22
  0.154241383        -2.72327760E-22
  0.154541373        -2.53568824E-22
  0.154841378        -2.12944305E-22
  0.155141383        -1.52358551E-22
  0.155441374        -7.55313996E-23
  0.155741379         1.22715486E-23
  0.156041384         1.04657185E-22
  0.156341374         1.94622487E-22
  0.156641379         2.75113461E-22
  0.156941384         3.39568774E-22
  0.157241374         3.82400286E-22
  0.157541379         3.99379854E-22
  0.157841384         3.87917617E-22
  0.158141375         3.47234836E-22
  0.158441380         2.78443666E-22
  0.158741385         1.84548720E-22
  0.159041375         7.03813748E-23
  0.159341380        -5.75342764E-23
  0.159641385        -1.91196167E-22
  0.159941375        -3.21442290E-22