# vtk DataFile Version 3.1
Mesh with Data
ASCII
DATASET UNSTRUCTURED_GRID
POINTS         7552 float
      0.200000E+03      0.000000E+00      0.200000E+03
      0.000000E+00      0.000000E+00      0.200000E+03
      0.197500E+03      0.000000E+00      0.200000E+03
      0.195000E+03      0.000000E+00      0.200000E+03
      0.192500E+03      0.000000E+00      0.200000E+03
      0.190000E+03      0.000000E+00      0.200000E+03
      0.187500E+03      0.000000E+00      0.200000E+03
      0.185000E+03      0.000000E+00      0.200000E+03
      0.182500E+03      0.000000E+00      0.200000E+03
      0.180000E+03      0.000000E+00      0.200000E+03
      0.177500E+03      0.000000E+00      0.200000E+03
      0.175000E+03      0.000000E+00      0.200000E+03
      0.172500E+03      0.000000E+00      0.200000E+03
      0.170000E+03      0.000000E+00      0.200000E+03
      0.167500E+03      0.000000E+00      0.200000E+03
      0.165000E+03      0.000000E+00      0.200000E+03
      0.162500E+03      0.000000E+00      0.200000E+03
      0.160000E+03      0.000000E+00      0.200000E+03
      0.157500E+03      0.000000E+00      0.200000E+03
      0.155000E+03      0.000000E+00      0.200000E+03
      0.152500E+03      0.000000E+00      0.200000E+03
      0.150000E+03      0.000000E+00      0.200000E+03
      0.147500E+03      0.000000E+00      0.200000E+03
      0.145000E+03      0.000000E+00      0.200000E+03
      0.142500E+03      0.000000E+00      0.200000E+03
      0.140000E+03      0.000000E+00      0.200000E+03
      0.137500E+03      0.000000E+00      0.200000E+03
      0.135000E+03      0.000000E+00      0.200000E+03
      0.132500E+03      0.000000E+00      0.200000E+03
      0.130000E+03      0.000000E+00      0.200000E+03
      0.127500E+03      0.000000E+00      0.200000E+03
      0.125000E+03      0.000000E+00      0.200000E+03
      0.122500E+03      0.000000E+00      0.200000E+03
      0.120000E+03      0.000000E+00      0.200000E+03
      0.117500E+03      0.000000E+00      0.200000E+03
      0.115000E+03      0.000000E+00      0.200000E+03
      0.112500E+03      0.000000E+00      0.200000E+03
      0.110000E+03      0.000000E+00      0.200000E+03
      0.107500E+03      0.000000E+00      0.200000E+03
      0.105000E+03      0.000000E+00      0.200000E+03
      0.102500E+03      0.000000E+00      0.200000E+03
      0.100000E+03      0.000000E+00      0.200000E+03
      0.975000E+02      0.000000E+00      0.200000E+03
      0.950000E+02      0.000000E+00      0.200000E+03
      0.925000E+02      0.000000E+00      0.200000E+03
      0.900000E+02      0.000000E+00      0.200000E+03
      0.875000E+02      0.000000E+00      0.200000E+03
      0.850000E+02      0.000000E+00      0.200000E+03
      0.825000E+02      0.000000E+00      0.200000E+03
      0.800000E+02      0.000000E+00      0.200000E+03
      0.775000E+02      0.000000E+00      0.200000E+03
      0.750000E+02      0.000000E+00      0.200000E+03
      0.725000E+02      0.000000E+00      0.200000E+03
      0.700000E+02      0.000000E+00      0.200000E+03
      0.675000E+02      0.000000E+00      0.200000E+03
      0.650000E+02      0.000000E+00      0.200000E+03
      0.625000E+02      0.000000E+00      0.200000E+03
      0.600000E+02      0.000000E+00      0.200000E+03
      0.575000E+02      0.000000E+00      0.200000E+03
      0.550000E+02      0.000000E+00      0.200000E+03
      0.525000E+02      0.000000E+00      0.200000E+03
      0.500000E+02      0.000000E+00      0.200000E+03
      0.475000E+02      0.000000E+00      0.200000E+03
      0.450000E+02      0.000000E+00      0.200000E+03
      0.425000E+02      0.000000E+00      0.200000E+03
      0.400000E+02      0.000000E+00      0.200000E+03
      0.375000E+02      0.000000E+00      0.200000E+03
      0.350000E+02      0.000000E+00      0.200000E+03
      0.325000E+02      0.000000E+00      0.200000E+03
      0.300000E+02      0.000000E+00      0.200000E+03
      0.275000E+02      0.000000E+00      0.200000E+03
      0.250000E+02      0.000000E+00      0.200000E+03
      0.225000E+02      0.000000E+00      0.200000E+03
      0.200000E+02      0.000000E+00      0.200000E+03
      0.175000E+02      0.000000E+00      0.200000E+03
      0.150000E+02      0.000000E+00      0.200000E+03
      0.125000E+02      0.000000E+00      0.200000E+03
      0.100000E+02      0.000000E+00      0.200000E+03
      0.750000E+01      0.000000E+00      0.200000E+03
      0.500000E+01      0.000000E+00      0.200000E+03
      0.250000E+01      0.000000E+00      0.200000E+03
      0.000000E+00      0.000000E+00      0.000000E+00
      0.000000E+00      0.000000E+00      0.197500E+03
      0.000000E+00      0.000000E+00      0.195000E+03
      0.000000E+00      0.000000E+00      0.192500E+03
      0.000000E+00      0.000000E+00      0.190000E+03
      0.000000E+00      0.000000E+00      0.187500E+03
      0.000000E+00      0.000000E+00      0.185000E+03
      0.000000E+00      0.000000E+00      0.182500E+03
      0.000000E+00      0.000000E+00      0.180000E+03
      0.000000E+00      0.000000E+00      0.177500E+03
      0.000000E+00      0.000000E+00      0.175000E+03
      0.000000E+00      0.000000E+00      0.172500E+03
      0.000000E+00      0.000000E+00      0.170000E+03
      0.000000E+00      0.000000E+00      0.167500E+03
      0.000000E+00      0.000000E+00      0.165000E+03
      0.000000E+00      0.000000E+00      0.162500E+03
      0.000000E+00      0.000000E+00      0.160000E+03
      0.000000E+00      0.000000E+00      0.157500E+03
      0.000000E+00      0.000000E+00      0.155000E+03
      0.000000E+00      0.000000E+00      0.152500E+03
      0.000000E+00      0.000000E+00      0.150000E+03
      0.000000E+00      0.000000E+00      0.147500E+03
      0.000000E+00      0.000000E+00      0.145000E+03
      0.000000E+00      0.000000E+00      0.142500E+03
      0.000000E+00      0.000000E+00      0.140000E+03
      0.000000E+00      0.000000E+00      0.137500E+03
      0.000000E+00      0.000000E+00      0.135000E+03
      0.000000E+00      0.000000E+00      0.132500E+03
      0.000000E+00      0.000000E+00      0.130000E+03
      0.000000E+00      0.000000E+00      0.127500E+03
      0.000000E+00      0.000000E+00      0.125000E+03
      0.000000E+00      0.000000E+00      0.122500E+03
      0.000000E+00      0.000000E+00      0.120000E+03
      0.000000E+00      0.000000E+00      0.117500E+03
      0.000000E+00      0.000000E+00      0.115000E+03
      0.000000E+00      0.000000E+00      0.112500E+03
      0.000000E+00      0.000000E+00      0.110000E+03
      0.000000E+00      0.000000E+00      0.107500E+03
      0.000000E+00      0.000000E+00      0.105000E+03
      0.000000E+00      0.000000E+00      0.102500E+03
      0.000000E+00      0.000000E+00      0.100000E+03
      0.000000E+00      0.000000E+00      0.975000E+02
      0.000000E+00      0.000000E+00      0.950000E+02
      0.000000E+00      0.000000E+00      0.925000E+02
      0.000000E+00      0.000000E+00      0.900000E+02
      0.000000E+00      0.000000E+00      0.875000E+02
      0.000000E+00      0.000000E+00      0.850000E+02
      0.000000E+00      0.000000E+00      0.825000E+02
      0.000000E+00      0.000000E+00      0.800000E+02
      0.000000E+00      0.000000E+00      0.775000E+02
      0.000000E+00      0.000000E+00      0.750000E+02
      0.000000E+00      0.000000E+00      0.725000E+02
      0.000000E+00      0.000000E+00      0.700000E+02
      0.000000E+00      0.000000E+00      0.675000E+02
      0.000000E+00      0.000000E+00      0.650000E+02
      0.000000E+00      0.000000E+00      0.625000E+02
      0.000000E+00      0.000000E+00      0.600000E+02
      0.000000E+00      0.000000E+00      0.575000E+02
      0.000000E+00      0.000000E+00      0.550000E+02
      0.000000E+00      0.000000E+00      0.525000E+02
      0.000000E+00      0.000000E+00      0.500000E+02
      0.000000E+00      0.000000E+00      0.475000E+02
      0.000000E+00      0.000000E+00      0.450000E+02
      0.000000E+00      0.000000E+00      0.425000E+02
      0.000000E+00      0.000000E+00      0.400000E+02
      0.000000E+00      0.000000E+00      0.375000E+02
      0.000000E+00      0.000000E+00      0.350000E+02
      0.000000E+00      0.000000E+00      0.325000E+02
      0.000000E+00      0.000000E+00      0.300000E+02
      0.000000E+00      0.000000E+00      0.275000E+02
      0.000000E+00      0.000000E+00      0.250000E+02
      0.000000E+00      0.000000E+00      0.225000E+02
      0.000000E+00      0.000000E+00      0.200000E+02
      0.000000E+00      0.000000E+00      0.175000E+02
      0.000000E+00      0.000000E+00      0.150000E+02
      0.000000E+00      0.000000E+00      0.125000E+02
      0.000000E+00      0.000000E+00      0.100000E+02
      0.000000E+00      0.000000E+00      0.750000E+01
      0.000000E+00      0.000000E+00      0.500000E+01
      0.000000E+00      0.000000E+00      0.250000E+01
      0.200000E+03      0.000000E+00      0.000000E+00
      0.250000E+01      0.000000E+00      0.000000E+00
      0.500000E+01      0.000000E+00      0.000000E+00
      0.750000E+01      0.000000E+00      0.000000E+00
      0.100000E+02      0.000000E+00      0.000000E+00
      0.125000E+02      0.000000E+00      0.000000E+00
      0.150000E+02      0.000000E+00      0.000000E+00
      0.175000E+02      0.000000E+00      0.000000E+00
      0.200000E+02      0.000000E+00      0.000000E+00
      0.225000E+02      0.000000E+00      0.000000E+00
      0.250000E+02      0.000000E+00      0.000000E+00
      0.275000E+02      0.000000E+00      0.000000E+00
      0.300000E+02      0.000000E+00      0.000000E+00
      0.325000E+02      0.000000E+00      0.000000E+00
      0.350000E+02      0.000000E+00      0.000000E+00
      0.375000E+02      0.000000E+00      0.000000E+00
      0.400000E+02      0.000000E+00      0.000000E+00
      0.425000E+02      0.000000E+00      0.000000E+00
      0.450000E+02      0.000000E+00      0.000000E+00
[...]
CELL_DATA        14782
SCALARS cvp float
LOOKUP_TABLE default
  -3.5936373592768081E-010
   7.5990561458170585E-010
   3.6368682463873345E-010
  -3.5311364614515348E-010
  -5.2701970577904680E-010
   4.7344091603893866E-010
   1.3033127245900755E-010
   4.5784199285290645E-010
   3.3322922300154121E-010
   1.5097603370448658E-010
  -1.8693668332457260E-010
  -1.7883317185596618E-010
  -1.9848818292008385E-010
  -1.9356053868925914E-010
  -2.0409504278689921E-010
  -3.6281943254041837E-010
   2.1945278372189896E-010
   1.8886650006307729E-010
  -1.4594911439324600E-010
  -2.4678596862849998E-010
  -1.7236527612966013E-010
  -1.0814422759580939E-010
  -1.8316727849350892E-010
  -1.9605688596108531E-010
  -2.3636752936771145E-010
  -1.8491020313854673E-010
  -4.1091623853487693E-011
  -1.6834046852330521E-010
  -2.1730808293999902E-010
  -2.4420442289478347E-010
  -1.9957635304243799E-010
  -6.4604761508362435E-011
   3.2163192309569483E-010
   4.5086126929792767E-010
   1.0962362358065890E-009
   5.0004828482710060E-010
   1.1771201456465063E-009
   1.2642793490254031E-009
   1.2769905181371541E-009
   2.2422137747691542E-010
  -3.5252876290133587E-010
  -3.5894459913339267E-010
  -2.4407542937821987E-010
  -3.4252368238606634E-011
  -1.4916893561081410E-010
  -2.5145815770443571E-010
  -2.4823714050444466E-010
  -1.0510860311576774E-010
  -1.7847576907474778E-010
  -2.8798900728533891E-010
   1.4953468135093539E-009
   3.8579108595291934E-011
  -6.8813033099531314E-011
   2.3997760381179374E-010
  -1.5628045534164784E-010
   3.7473170222341727E-010
  -2.5064027014059810E-010
   4.0124915318928132E-010
  -2.8194047319475070E-010
   3.3878142529956701E-010
  -2.0025253329249964E-010
  -1.8528541608374491E-011
  -5.4129068118829027E-010
   5.5077134162695210E-010
   3.3026655905202400E-010
   8.3461430715461765E-010
   3.4961411233237057E-010
   1.1055092911416914E-009
   2.5712854718879419E-010
   1.2272038055355625E-010
   2.0522466332497993E-010
  -1.7565211539797113E-009
   1.0050338149505821E-009
   1.1461199757311645E-009
   2.5095412886215283E-010
   7.5488651567827947E-011
  -5.4914591185032196E-010
  -3.2169289183918646E-010
   2.9543716471523279E-010
   1.2235446489912717E-010
  -3.8010508684198323E-010
  -2.4974232507240356E-010
  -3.6289775458645502E-010
  -3.3355136226054638E-010
  -1.1030698566112371E-010
  -2.4648010822224089E-010
   8.7622259662976220E-010
   3.2121915370526926E-010
   1.8859413016188810E-010
  -1.3952996241503720E-010
   1.1591785720925972E-010
   3.1897705803488124E-010
  -1.9802237957659193E-009
  -2.4975195970210061E-010
  -9.5748479818162599E-011
  -3.2779647224347685E-011
  -2.9288191219019792E-010
  -6.3971059105016224E-011
   4.2726364231124428E-010
  -4.6175704392664841E-010
  -5.1167878853366739E-010
  -4.7773112636169367E-010
  -4.1636010193436437E-010
  -2.9406821098582381E-010
  -1.7954033850907679E-010
  -2.0273551671492334E-009
  -2.4520999588472866E-010
  -2.2593083745174448E-010
   4.5382476991221871E-010
   4.5784968982639225E-010
  -1.5142549534290845E-010
   2.9665245718173134E-010
  -1.5735660930257276E-010
   1.6447828794040226E-010
   5.7596968601669769E-010
  -3.7764034112679672E-010
   1.4857298443788091E-010
  -1.5506256255167027E-010
  -1.9777832886571439E-010
   2.0732181347468281E-010
  -4.4751561479945428E-010
   5.5985237764677790E-010
  -5.4539556696533708E-010
   7.3331219552212321E-010
   6.3781193085825583E-010
  -6.6575732810582038E-010
   3.1941995249957097E-010
  -8.9896405507241350E-010
  -6.9416651209360541E-011
  -1.1504909705893883E-009
  -1.2692455987752499E-009
  -4.7485826252935738E-010
  -4.4415559848975430E-010
   3.5167255141040113E-010
  -4.0646041506454997E-010
  -5.0777301790870544E-010
  -8.1038454577552704E-010
  -1.2433795522699860E-009
  -1.6252751952581099E-009
  -3.1717127626103182E-010
  -2.3671569553000768E-009
   9.5411998610723124E-011
   6.3100238759815483E-010
   8.8290077856299928E-010
   8.1875588939688356E-010
   1.2481934107335228E-009
   2.7045728587322853E-010
   7.4435733305122516E-010
   9.9013511606411214E-010
   7.7751760428518567E-010
   1.6305335342156877E-009
   1.0825367215285445E-009
   1.0679437869867591E-009
   3.2662488381479721E-010
  -2.7197513570237765E-009
  -1.3428451638347124E-010
   8.7247468621429418E-010
  -3.0632906749483245E-010
   1.2843157685509212E-009
  -2.2855161726989037E-011
   9.6781677638415449E-010
   9.4949863795245648E-011
   4.5333759829441445E-010
  -5.2949936496920349E-011
  -1.8089853265287548E-011
   6.4248887240899381E-010
  -1.2280803674222481E-009
  -1.9288929942329903E-009
  -1.7084905025898073E-010
   9.7737924149511274E-011
   3.5092517217585377E-010
   3.7667269332727290E-010
   5.3418195343352571E-011
  -5.9730906834904559E-010
  -1.4092942018670592E-009
  -2.1274855352421970E-009
  -1.4025765724491903E-009
   4.1909409050085493E-010
   7.1783321562088388E-010
   8.3559714129875728E-010
  -2.3676577253860146E-010
  -2.3620177938589785E-010
   7.4557483896796665E-010
   1.5862645337873670E-009
   1.3351146748871899E-009
   1.3315458886955737E-010
   1.5670967827237579E-009
   1.7481385055479798E-009
   7.1488536524172940E-011
   1.4628489701356538E-009
   4.9617932056039326E-010
   1.4742730921807143E-010
  -3.0426333389046005E-010
  -3.6060155502927054E-010
  -3.2057753461041750E-010
  -6.2559481121722567E-010
  -1.3810610606612200E-009
   3.9426994600634048E-010
   7.9241142739302534E-010
   9.8170759223326992E-010
   9.1870758290148934E-010
   6.3056442947453923E-010
   1.6252436953827487E-010
  -4.3842896787349263E-010
  -6.1379512617216082E-010
  -1.5953566854184551E-009
   8.1208501275408124E-010
  -1.7505090369242435E-011
  -7.8491602200932414E-010
  -3.6712053863607098E-010
   1.8584487095926290E-009
  -1.3393709620332106E-009
   2.5186475746773804E-011
  -6.0628364435169658E-010
   1.6005704937248343E-009
  -3.5910247499196331E-010
  -5.1694963989767818E-010
   8.4656386732324736E-010
   4.3455215467437125E-010
  -9.5203858018990240E-011
   6.6280004961465030E-010
  -8.3162740299579687E-010
   6.7853649618539367E-010
  -1.0843426198399253E-009
   6.2719437635964084E-010
  -8.2801178588614112E-010
  -2.8805525492722718E-010
   6.9908972802075134E-010
  -1.8545502201831288E-009
   2.0903980397686133E-010
   2.4095666154271167E-010
  -3.5583894892890302E-009
   5.4420420894402990E-010
   9.6640807311426021E-010
  -1.0979317504787619E-009
   7.1286975425475378E-011
  -2.4143727690200267E-010
  -2.7069235858890386E-009
  -1.7801917681106277E-009
  -2.0099393527854525E-009
  -1.5717443414644040E-009
  -9.1994004392514613E-010
  -1.5750655315204309E-009
   1.5640880878477229E-009
  -1.2887743307191801E-010
  -2.1347197470361525E-009
  -6.5807662835644625E-010
  -1.2846124232114698E-009
  -1.0357461089501547E-009
  -4.7949543523319264E-010
  -2.8531337203293381E-011
  -1.8249099362585515E-010
  -8.4171165476757157E-010
  -1.9268637397816221E-009
  -1.4901773780729300E-009
   1.6228804692256360E-009
  -2.4820879163293189E-009
  -2.2836456566516897E-009
  -3.0650920875229980E-009
  -2.6459103450047144E-010
  -1.6623081769369704E-009
  -5.9837965702704235E-010
  -1.8321567967776277E-010
  -2.7609204838740885E-009
  -1.5722039306527246E-009
  -9.8486588574219908E-010
  -2.0556157172497559E-011
  -3.0078656687320072E-009
  -2.3258125495389624E-009
  -2.7162661176722516E-009
  -1.2276704758748828E-009
  -3.2315836595787251E-009
  -2.8663867520350478E-009
   9.9821534093033977E-011
  -1.6167136086349891E-009
  -3.0877099804889018E-010
  -1.3189230001578045E-009
  -2.5088692907700669E-009
  -3.3856033563082322E-009
  -2.8582458458380367E-009
  -1.8774054865360020E-011
   6.2577885066875436E-009
   6.0405556198466215E-010
  -2.3894454688809158E-009
  -4.1012937255247443E-010
  -1.8723887516979595E-010
   9.7895200146443935E-010
   1.3257393282493183E-009
   3.4846051432549813E-010
   2.9715922259893994E-010
  -1.6647011154306662E-009
  -1.4293023370358186E-009
  -3.3949042562661445E-010
  -3.0483793672098280E-009
   5.1466304826909861E-010
  -3.2964844349855378E-009
   2.3837429995141886E-011
  -8.5600589670748704E-010
  -1.6506534305088961E-009
  -2.1794601517835262E-009
  -2.6344731213221222E-009
  -2.5569567846624515E-009
   3.3164173036478733E-010
   4.2124368560928124E-011
  -1.9677761589568176E-010
  -5.4985374547678779E-010
  -1.0764265412681873E-010
   2.4804752585596987E-009
   8.7722964098942250E-010
   5.4661055193660994E-010
   7.3243272411915497E-011
  -5.1086778416898775E-010
   1.2433528366553836E-009
   1.7568581718472637E-009
   1.3750846584656830E-009
  -2.6869998182113348E-010
   5.2001475926667673E-010
  -1.0865071687390173E-009
  -1.3776032865918572E-010
  -9.6644084801194986E-011
   6.2010320887450703E-010
   1.4403110620650332E-009
   8.1684720205672986E-010
   5.0195061773474565E-009
   1.0170533046655194E-009
   1.6672098057251201E-009
   2.6020708071751910E-009
   2.1995359295737737E-010
   2.9402439826182017E-009
   3.0148266010235584E-009
   2.6899509386520433E-009
   2.1541804397217091E-009
   4.3680555596929265E-009
   9.8194062971287665E-010
   4.0796423420895462E-009
   1.8646054217853280E-009
   8.2470139008117903E-010
   2.4861364106597351E-009
   4.6427929170298182E-009
   6.2111668868755541E-009
   4.5517978946024026E-009
   1.7793273142090433E-009
   8.0830017906980174E-009
   7.6106065407434674E-009
   6.7602887982676134E-009
   4.0100732254785312E-009
   8.0421953723316551E-009
   7.9394658759807517E-009
   6.1915323841362863E-009
   3.2990152505256040E-009
   6.1812584623442782E-009
   6.7590807971691634E-009
   6.1711819742882433E-009
   4.2853767941564878E-009
   4.9335347543473448E-009
   5.5192137116278002E-009
   5.0097684144325767E-009
   3.2303853377773967E-009
   2.9100332382894096E-009
   1.9093859568600658E-009
   2.6354064556457010E-009
   5.4605286593654147E-010
   1.3671342304333407E-009
  -3.9259300618141737E-011
  -1.9811170830131037E-010
  -5.7186859884782528E-012
  -8.6781371489383652E-017
  -1.5903623398669311E-016
  -0.0000000000000000     
  -4.7921472860078669E-011
   2.8934897097087879E-010
   1.8638130929303724E-010
   8.8379973250441093E-011
  -2.3697286082510882E-011
   2.4508337934534368E-010
  -7.5686114085243190E-011
   1.2305674426357709E-010
   1.5583527740961044E-010
   1.0583239066347315E-010
   8.7136643598409031E-011
   9.0478975741208310E-011
   8.4032387123375288E-011
   6.7934955440800286E-011
   6.3399872829660680E-011
   1.5656097056660228E-010
   2.8469993606319652E-010
   3.2034894186997233E-010
   4.0983511874810552E-011
  -8.7498255408206652E-012
  -1.3891589295884952E-010
  -2.2430151480455047E-011
  -3.0209053202957049E-011
   2.5895813148241079E-010
  -3.0802837964656200E-010
   1.2587297779318529E-011
  -6.8239254058467353E-012
   2.2502997822886031E-011
   4.5657620576607045E-011
  -6.6703537345699593E-011
  -5.4518787492128114E-011
  -3.2197534892309810E-011
  -3.3260741432531338E-012
   2.7350668051105450E-011
  -4.5867973877517324E-011
   7.7937106878225955E-011
   7.5578174607726654E-011
   5.4983854819794829E-011
   7.2374247595521193E-011
   7.1286904589984740E-011
  -8.6764936664229572E-011
   6.8104182724417535E-011
   6.0521858877891270E-011
  -6.6648557267181262E-011
  -5.3360298235725577E-011
  -2.6756359233124705E-011
  -3.8162878631329590E-011
  -6.6191838551840667E-011
  -8.6081626918506519E-011
  -9.4876932161859729E-011
  -9.1436210056453002E-011
   3.1137123857241223E-010
   9.9750255939646599E-011
   1.6445106039881358E-010
   2.2924257342313016E-010
   1.7746976543545351E-010
   1.8392586657750973E-010
   3.3014434852027206E-010
  -3.3880765262700490E-011
  -1.3285633311639237E-011
   6.7531039743222114E-012
   2.8333724602964905E-011
   4.8768353189223901E-011
  -7.0243085774704002E-011
  -1.0090534819515999E-010
  -1.4996796354813461E-010
  -1.4186115955329865E-010
  -1.2812311185358966E-010
  -1.1543771919234781E-010
  -1.0655130817983567E-010
   2.2414961953857253E-011
   9.6188197896535073E-012
  -4.0038982655718291E-012
  -2.1928418710180316E-011
  -7.4424381404839901E-011
  -4.3027211862772680E-011
  -1.0332608178329317E-010
  -1.2632669624041322E-010
  -1.3834934147190069E-010
  -3.8509099930899246E-011
  -1.3742039502986957E-010
  -5.5313355841519251E-011
  -1.2419396047645350E-010
  -7.6560323685902524E-011
  -1.0191251738714838E-010
   1.8429918684517043E-010
  -3.4352711963356155E-011
  -1.2730971352983263E-010
   5.3370128325631140E-012
  -1.4615433698380290E-010
   4.8215950916266754E-011
  -1.5323962365716460E-010
   9.4249981387745868E-011
  -1.4660393094084262E-010
   1.4265066815581339E-010
  -1.2745281133460031E-010
   1.9053107010604000E-010
  -9.9077344147371829E-011
   2.3220305395053153E-010
  -6.5457043635569308E-011
  -2.1484441913746070E-010
   2.6192646028860657E-010
   4.2564415433738334E-012
   3.6773057288358438E-011
   6.7638300799658865E-011
   9.8039972513798483E-011
  -2.5997069907069251E-010
   1.2836224491014325E-010
  -9.5865174158934813E-011
  -1.3522980627153960E-010
  -2.4824658892847820E-010
   9.8188772184987196E-010
   6.0907642927185446E-010
  -3.6956796122495420E-010
  -6.8571027944067379E-011
   4.0042173915692356E-011
  -2.4150331652748674E-011
  -6.2967363365944431E-011
  -9.9919878297018078E-011
  -1.5829000194733373E-011
  -9.8213864561925333E-011
   1.5642097878959409E-010
  -1.4661912612929953E-010
  -1.2936389020322865E-010
  -1.2226850273741842E-010
  -1.2159812526011547E-010
  -1.2484339078263679E-010
  -1.3042407372515478E-010
   1.1454210845006946E-011
  -1.3198482939375556E-010
   5.9128558760121146E-011
  -1.2321250792091769E-010
   6.7019808649903565E-011
  -1.0142304617233872E-010
   6.3029752483219320E-011
  -2.9547258761672908E-011
   9.9200816924739312E-012
   4.4799896415869972E-011
   7.1357863213205855E-011
   8.6604059665167972E-011
   8.8069360931990165E-011
   7.3823835548411758E-011
   4.3693618200128751E-011
   6.8316206942337618E-013
  -4.8630373267560532E-011
  -3.3572369494124306E-010
  -3.9578480600935675E-010
  -3.1267871655730043E-010
  -3.2970605678674233E-010
  -3.5587162357594135E-010
  -2.8677186999896017E-010
   1.4665807918581508E-010
   1.1230117480564844E-010
   1.3312941750553640E-010
   1.3856418980582911E-010
   1.3649366899399674E-010
   1.7645117463022908E-010
   1.1114129678950965E-010
  -1.0613604747018080E-010
  -8.7045282300356250E-011
  -7.3869939851858534E-011
  -6.1433887673585428E-011
   1.8410248848897583E-010
   1.8446843769263143E-011
   5.5170401843545322E-011
  -5.5590871522293824E-011
   8.8727073721404669E-011
  -3.2426742811749420E-011
   1.1496607658729667E-010
  -1.3212934230538635E-011
   1.3192055192289237E-010
   8.6654275314891450E-012
   3.6132563275527608E-011
  -2.7015137147609465E-010
   6.8395742804627393E-011
   7.2157214280174404E-011
   1.0109991912119939E-010
   1.0680409248263752E-011
   1.2822545297560090E-010
  -6.9372355715538589E-011
   1.4584263028255494E-010
  -1.5969186333181654E-010
   1.5342984735714790E-010
  -2.4706028804119988E-010
   1.5205171589014818E-010
  -3.1713756367407695E-010
   1.4163790727736997E-010
   1.1963998496728715E-010
   8.1784972715650043E-011
   2.3941157484211516E-011
  -5.4796110693237147E-011
  -1.4930794982676537E-010
  -3.1135814322065215E-010
  -3.4167472271780381E-010
   1.0668751253792351E-010
   4.0187224422766407E-012
   1.0899078397225332E-010
   1.3626064989478395E-010
   8.3854069195039963E-011
   1.4299966176721312E-010
   1.9486394167983905E-011
   6.0022685837231732E-011
   8.8562781952335726E-011
   1.3306321896904368E-010
   1.8542797229898396E-010
   1.7965776793806938E-010
  -2.1480514355044579E-010
   1.6137355184897219E-010
   1.7156719077502931E-010
   1.8800723495709734E-010
   8.0292173749755753E-011
   1.9983752567908555E-010
   4.6992590128836127E-011
   1.9845334411284660E-010
  -5.2581018287698232E-011
   1.7974986741529681E-010
  -1.2335958016821640E-010
  -2.0443715807995075E-010
   6.7385811312960222E-011
   3.2202795484810305E-011
  -3.9489501129353657E-010
  -1.1054677612578111E-012
  -3.8164802537331259E-011
  -8.3819382447346571E-011
  -1.9973973907639640E-010
  -2.6379988308336866E-010
  -1.8909816772202996E-010
  -5.0238316229878232E-011
  -2.3335711089184707E-010
  -1.9818388493236860E-010
  -1.6528547332716433E-010
   2.5992404622557711E-011
   2.1140682315933645E-010
   2.1009187145714351E-010
   2.1627674270557384E-010
   2.1365609933162195E-010
   2.0486864605101287E-010
   2.3359684571022317E-010
   2.3000294363443009E-010
   1.6735631295853971E-011
   2.1569467664272962E-010
  -4.5871555289468461E-011
   2.0210538126794738E-010
  -9.5845471014657266E-011
   1.8590079233859236E-010
  -1.3340994365843510E-010
   1.5697677902510697E-010
   1.0770315342643555E-010
   2.3792199640748001E-010
   3.9459256019247610E-011
  -2.6509400349919097E-010
  -3.7375383457897817E-011
  -2.8405373454553990E-010
  -1.0835200876832413E-010
  -2.8287714525285821E-010
  -1.6329705820112110E-010
  -2.5939036104049656E-010
  -2.0154204068830412E-010
  -2.3038839971335648E-010
  -2.5885650608334564E-010
  -2.9003737778921720E-010
  -3.1798562266802602E-010
  -2.6888844831952371E-010
  -1.3964921309817531E-010
  -3.6256002472064833E-011
  -3.8741394256988730E-010
  -3.9281422961197773E-010
  -3.1783944678471772E-010
  -3.0591639782900183E-010
  -2.4342130839793584E-010
  -2.9502463027208408E-010
  -3.1676486242877246E-010
  -2.9615960276033398E-010
  -2.4039398115119923E-010
   1.4858491831952852E-010
   1.8513460497277532E-010
   2.2299233628331616E-010
   1.1503495868673163E-010
   7.5369096773968900E-011
   1.9134712465399868E-011
  -5.5776113257238797E-011
   1.5628381441587011E-010
  -1.3960409973316389E-010
   1.0861028224872479E-010
  -2.6703427405883708E-010
  -2.9400352243988154E-010
  -2.8817669475116636E-011
  -1.0136935528745148E-010
  -3.3990174297770853E-010
  -1.8302340954899086E-010
  -3.6990767163815369E-010
  -2.5428325829532264E-010
  -2.9851500148658928E-010
  -3.3637829276245854E-010
  -3.1256018725983029E-010
  -2.3579136488264556E-010
  -1.0111681092265428E-010
  -3.0332572039132642E-010
  -3.1270664524992083E-010
  -3.3881743025771138E-010
  -3.8203740017059598E-010
  -3.5232724329766819E-010
  -7.8109274709273600E-012
  -1.9305136677489005E-010
  -1.9990433309514866E-010
  -1.7000391630509101E-010
  -2.6372135222478762E-010
  -7.0178181529925919E-011
   1.7808111955021182E-011
  -3.1435443100158192E-011
  -1.1318439558445672E-010
  -1.7190999672537645E-010
  -8.0316519655061931E-011
  -1.1393653339761987E-010
  -1.4669211872057927E-010
  -1.8704151742666351E-010
  -1.9462701234030581E-010
  -1.5093488683245092E-010
  -2.5363940621302387E-010
  -1.4719212870120219E-010
  -3.0038835339058947E-010
  -3.0897380845199718E-010
  -2.6828609947401602E-010
  -2.1374799437621997E-010
  -1.8989593021780798E-010
  -1.2934388018871754E-010
  -1.0239501192232104E-010
  -1.3183978969684738E-011
  -3.4936068498811561E-011
  -5.2376871573039723E-011
   5.9458537714088858E-010
   3.9632021460216879E-010
   3.8744665568770683E-010
   3.1517516767864100E-010
   5.1544329366336549E-010
  -2.5097497602738691E-010
  -2.1014373631002881E-010
  -2.8558808346828996E-010
  -2.7933516059256199E-010
  -2.1059184330239320E-010
  -8.6413954137718926E-011
   5.9021724656824607E-011
  -2.3713227686356248E-010
   2.6445361532545879E-010
   3.0091102603212863E-010
  -1.8979237006813400E-010
   3.3117321637555980E-010
  -5.1437977189835593E-011
   3.5869698205074649E-010
   1.1605839027595229E-010
   2.6608718505057013E-010
   3.6776935250241984E-010
   4.2067304217281327E-010
   4.4993880741829990E-010
   4.8618984465076888E-010
   5.4338357996792479E-010
   6.4908085694123044E-010
   9.9064024374789708E-010
   8.2767809786526252E-010
   5.3856915012137125E-010
   5.7906124795497548E-010
   6.7562041961575785E-010
   5.0038471776555833E-010
   5.1320787255712428E-010
   7.6238066984632659E-010
   2.5691182376101585E-010
   3.3535065731508157E-010
   3.6083524646788287E-011
   6.2807985181795694E-011