# vtk DataFile Version 3.1
Mesh with Data
ASCII
DATASET UNSTRUCTURED_GRID
POINTS         7552 float
      0.200000E+03      0.000000E+00      0.200000E+03
      0.000000E+00      0.000000E+00      0.200000E+03
      0.197500E+03      0.000000E+00      0.200000E+03
      0.195000E+03      0.000000E+00      0.200000E+03
      0.192500E+03      0.000000E+00      0.200000E+03
      0.190000E+03      0.000000E+00      0.200000E+03
      0.187500E+03      0.000000E+00      0.200000E+03
      0.185000E+03      0.000000E+00      0.200000E+03
      0.182500E+03      0.000000E+00      0.200000E+03
      0.180000E+03      0.000000E+00      0.200000E+03
      0.177500E+03      0.000000E+00      0.200000E+03
      0.175000E+03      0.000000E+00      0.200000E+03
      0.172500E+03      0.000000E+00      0.200000E+03
      0.170000E+03      0.000000E+00      0.200000E+03
      0.167500E+03      0.000000E+00      0.200000E+03
      0.165000E+03      0.000000E+00      0.200000E+03
      0.162500E+03      0.000000E+00      0.200000E+03
      0.160000E+03      0.000000E+00      0.200000E+03
      0.157500E+03      0.000000E+00      0.200000E+03
      0.155000E+03      0.000000E+00      0.200000E+03
      0.152500E+03      0.000000E+00      0.200000E+03
      0.150000E+03      0.000000E+00      0.200000E+03
      0.147500E+03      0.000000E+00      0.200000E+03
      0.145000E+03      0.000000E+00      0.200000E+03
      0.142500E+03      0.000000E+00      0.200000E+03
      0.140000E+03      0.000000E+00      0.200000E+03
      0.137500E+03      0.000000E+00      0.200000E+03
      0.135000E+03      0.000000E+00      0.200000E+03
      0.132500E+03      0.000000E+00      0.200000E+03
      0.130000E+03      0.000000E+00      0.200000E+03
      0.127500E+03      0.000000E+00      0.200000E+03
      0.125000E+03      0.000000E+00      0.200000E+03
      0.122500E+03      0.000000E+00      0.200000E+03
      0.120000E+03      0.000000E+00      0.200000E+03
      0.117500E+03      0.000000E+00      0.200000E+03
      0.115000E+03      0.000000E+00      0.200000E+03
      0.112500E+03      0.000000E+00      0.200000E+03
      0.110000E+03      0.000000E+00      0.200000E+03
      0.107500E+03      0.000000E+00      0.200000E+03
      0.105000E+03      0.000000E+00      0.200000E+03
      0.102500E+03      0.000000E+00      0.200000E+03
      0.100000E+03      0.000000E+00      0.200000E+03
      0.975000E+02      0.000000E+00      0.200000E+03
      0.950000E+02      0.000000E+00      0.200000E+03
      0.925000E+02      0.000000E+00      0.200000E+03
      0.900000E+02      0.000000E+00      0.200000E+03
      0.875000E+02      0.000000E+00      0.200000E+03
      0.850000E+02      0.000000E+00      0.200000E+03
      0.825000E+02      0.000000E+00      0.200000E+03
      0.800000E+02      0.000000E+00      0.200000E+03
      0.775000E+02      0.000000E+00      0.200000E+03
      0.750000E+02      0.000000E+00      0.200000E+03
      0.725000E+02      0.000000E+00      0.200000E+03
      0.700000E+02      0.000000E+00      0.200000E+03
      0.675000E+02      0.000000E+00      0.200000E+03
      0.650000E+02      0.000000E+00      0.200000E+03
      0.625000E+02      0.000000E+00      0.200000E+03
      0.600000E+02      0.000000E+00      0.200000E+03
      0.575000E+02      0.000000E+00      0.200000E+03
      0.550000E+02      0.000000E+00      0.200000E+03
      0.525000E+02      0.000000E+00      0.200000E+03
      0.500000E+02      0.000000E+00      0.200000E+03
      0.475000E+02      0.000000E+00      0.200000E+03
      0.450000E+02      0.000000E+00      0.200000E+03
      0.425000E+02      0.000000E+00      0.200000E+03
      0.400000E+02      0.000000E+00      0.200000E+03
      0.375000E+02      0.000000E+00      0.200000E+03
      0.350000E+02      0.000000E+00      0.200000E+03
      0.325000E+02      0.000000E+00      0.200000E+03
      0.300000E+02      0.000000E+00      0.200000E+03
      0.275000E+02      0.000000E+00      0.200000E+03
      0.250000E+02      0.000000E+00      0.200000E+03
      0.225000E+02      0.000000E+00      0.200000E+03
      0.200000E+02      0.000000E+00      0.200000E+03
      0.175000E+02      0.000000E+00      0.200000E+03
      0.150000E+02      0.000000E+00      0.200000E+03
      0.125000E+02      0.000000E+00      0.200000E+03
      0.100000E+02      0.000000E+00      0.200000E+03
      0.750000E+01      0.000000E+00      0.200000E+03
      0.500000E+01      0.000000E+00      0.200000E+03
      0.250000E+01      0.000000E+00      0.200000E+03
      0.000000E+00      0.000000E+00      0.000000E+00
      0.000000E+00      0.000000E+00      0.197500E+03
      0.000000E+00      0.000000E+00      0.195000E+03
      0.000000E+00      0.000000E+00      0.192500E+03
      0.000000E+00      0.000000E+00      0.190000E+03
      0.000000E+00      0.000000E+00      0.187500E+03
      0.000000E+00      0.000000E+00      0.185000E+03
      0.000000E+00      0.000000E+00      0.182500E+03
      0.000000E+00      0.000000E+00      0.180000E+03
      0.000000E+00      0.000000E+00      0.177500E+03
      0.000000E+00      0.000000E+00      0.175000E+03
      0.000000E+00      0.000000E+00      0.172500E+03
      0.000000E+00      0.000000E+00      0.170000E+03
      0.000000E+00      0.000000E+00      0.167500E+03
      0.000000E+00      0.000000E+00      0.165000E+03
      0.000000E+00      0.000000E+00      0.162500E+03
      0.000000E+00      0.000000E+00      0.160000E+03
      0.000000E+00      0.000000E+00      0.157500E+03
      0.000000E+00      0.000000E+00      0.155000E+03
      0.000000E+00      0.000000E+00      0.152500E+03
      0.000000E+00      0.000000E+00      0.150000E+03
      0.000000E+00      0.000000E+00      0.147500E+03
      0.000000E+00      0.000000E+00      0.145000E+03
      0.000000E+00      0.000000E+00      0.142500E+03
      0.000000E+00      0.000000E+00      0.140000E+03
      0.000000E+00      0.000000E+00      0.137500E+03
      0.000000E+00      0.000000E+00      0.135000E+03
      0.000000E+00      0.000000E+00      0.132500E+03
      0.000000E+00      0.000000E+00      0.130000E+03
      0.000000E+00      0.000000E+00      0.127500E+03
      0.000000E+00      0.000000E+00      0.125000E+03
      0.000000E+00      0.000000E+00      0.122500E+03
      0.000000E+00      0.000000E+00      0.120000E+03
      0.000000E+00      0.000000E+00      0.117500E+03
      0.000000E+00      0.000000E+00      0.115000E+03
      0.000000E+00      0.000000E+00      0.112500E+03
      0.000000E+00      0.000000E+00      0.110000E+03
      0.000000E+00      0.000000E+00      0.107500E+03
      0.000000E+00      0.000000E+00      0.105000E+03
      0.000000E+00      0.000000E+00      0.102500E+03
      0.000000E+00      0.000000E+00      0.100000E+03
      0.000000E+00      0.000000E+00      0.975000E+02
      0.000000E+00      0.000000E+00      0.950000E+02
      0.000000E+00      0.000000E+00      0.925000E+02
      0.000000E+00      0.000000E+00      0.900000E+02
      0.000000E+00      0.000000E+00      0.875000E+02
      0.000000E+00      0.000000E+00      0.850000E+02
      0.000000E+00      0.000000E+00      0.825000E+02
      0.000000E+00      0.000000E+00      0.800000E+02
      0.000000E+00      0.000000E+00      0.775000E+02
      0.000000E+00      0.000000E+00      0.750000E+02
      0.000000E+00      0.000000E+00      0.725000E+02
      0.000000E+00      0.000000E+00      0.700000E+02
      0.000000E+00      0.000000E+00      0.675000E+02
      0.000000E+00      0.000000E+00      0.650000E+02
      0.000000E+00      0.000000E+00      0.625000E+02
      0.000000E+00      0.000000E+00      0.600000E+02
      0.000000E+00      0.000000E+00      0.575000E+02
      0.000000E+00      0.000000E+00      0.550000E+02
      0.000000E+00      0.000000E+00      0.525000E+02
      0.000000E+00      0.000000E+00      0.500000E+02
      0.000000E+00      0.000000E+00      0.475000E+02
      0.000000E+00      0.000000E+00      0.450000E+02
      0.000000E+00      0.000000E+00      0.425000E+02
      0.000000E+00      0.000000E+00      0.400000E+02
      0.000000E+00      0.000000E+00      0.375000E+02
      0.000000E+00      0.000000E+00      0.350000E+02
      0.000000E+00      0.000000E+00      0.325000E+02
      0.000000E+00      0.000000E+00      0.300000E+02
      0.000000E+00      0.000000E+00      0.275000E+02
      0.000000E+00      0.000000E+00      0.250000E+02
      0.000000E+00      0.000000E+00      0.225000E+02
      0.000000E+00      0.000000E+00      0.200000E+02
      0.000000E+00      0.000000E+00      0.175000E+02
      0.000000E+00      0.000000E+00      0.150000E+02
      0.000000E+00      0.000000E+00      0.125000E+02
      0.000000E+00      0.000000E+00      0.100000E+02
      0.000000E+00      0.000000E+00      0.750000E+01
      0.000000E+00      0.000000E+00      0.500000E+01
      0.000000E+00      0.000000E+00      0.250000E+01
      0.200000E+03      0.000000E+00      0.000000E+00
      0.250000E+01      0.000000E+00      0.000000E+00
      0.500000E+01      0.000000E+00      0.000000E+00
      0.750000E+01      0.000000E+00      0.000000E+00
      0.100000E+02      0.000000E+00      0.000000E+00
      0.125000E+02      0.000000E+00      0.000000E+00
      0.150000E+02      0.000000E+00      0.000000E+00
      0.175000E+02      0.000000E+00      0.000000E+00
      0.200000E+02      0.000000E+00      0.000000E+00
      0.225000E+02      0.000000E+00      0.000000E+00
      0.250000E+02      0.000000E+00      0.000000E+00
      0.275000E+02      0.000000E+00      0.000000E+00
      0.300000E+02      0.000000E+00      0.000000E+00
      0.325000E+02      0.000000E+00      0.000000E+00
      0.350000E+02      0.000000E+00      0.000000E+00
      0.375000E+02      0.000000E+00      0.000000E+00
      0.400000E+02      0.000000E+00      0.000000E+00
      0.425000E+02      0.000000E+00      0.000000E+00
      0.450000E+02      0.000000E+00      0.000000E+00
[...]
CELL_DATA        14782
SCALARS cvp float
LOOKUP_TABLE default
  -3.7438464865298338E-002
   5.6464311177408563E-002
  -1.6137246924792452E-002
   8.8221628528912133E-002
  -7.4510470438637552E-002
   6.0452952607739141E-002
  -2.4469955583399598E-002
  -4.7563060680352987E-002
  -5.0580737074461868E-002
  -3.0733084592524856E-002
  -6.7311068817958231E-002
  -8.1135693332688635E-002
  -7.8560660342777755E-002
  -6.8376720182504860E-002
  -3.2069647680577087E-002
  0.10360151307022358     
   7.3569959270196411E-002
  -3.5556799956480659E-002
  -4.0451384344784833E-002
   5.9978385845614740E-002
  -3.6958650715333524E-002
   3.3977460187095382E-002
  -6.9633486087697344E-002
   1.0617512349448296E-002
   4.8765416644382387E-002
   4.1582344885868032E-002
   5.1933638920163795E-003
   8.0631491242229309E-003
   5.0360293326297531E-002
   6.6116793787989944E-002
   5.0160762824608351E-002
   1.3460904103821877E-002
  -4.6357768830410470E-002
  -4.4347683872108586E-002
  0.12333769037790557     
  -2.1124608294593786E-002
  0.12250323195763047     
  0.12275299210811003     
   9.9059772220073838E-002
   3.1574769014621897E-002
   6.9035606348035988E-002
   9.6218781864415334E-002
  0.10050365965328489     
   7.7379249958972329E-002
   2.9626352154005560E-002
   6.5775316601793560E-002
   7.4967021740978704E-002
  -9.5252585388484919E-004
   4.8892656032940032E-002
   5.2783789135648886E-002
  -6.7382496036768671E-002
  -1.2225332524974774E-002
  -7.3882551267554792E-003
  -3.8406605414874388E-002
   4.5538957528742804E-002
  -3.7838915067293991E-002
   7.7372264254269962E-002
  -1.3045762999035770E-002
   7.2726053320117806E-002
   2.3657473989175126E-002
   3.7534604323517483E-002
  -6.4747082763713026E-003
   3.3749637975358016E-002
   8.5735236567739667E-002
  -3.6239698122518427E-002
   8.4316853310761039E-002
  -1.0160244224340247E-002
   8.8737403086794633E-002
   2.9223527267561760E-002
   6.4874908012805668E-002
 -0.21774966025463272     
  -5.1450811756358808E-002
   6.6086618793406673E-002
   8.5745268677389130E-002
   2.2364589073482176E-003
  -1.0154503790345118E-002
  -1.6240970473753447E-002
   6.0506828568510550E-002
  -3.8229772234526206E-002
  -3.2174513383135983E-002
   9.1899609285874539E-002
   7.7469546755678451E-002
   7.4895228112823800E-002
   8.3993695590524164E-002
   4.6558337020023745E-003
   7.4796137830910464E-002
   4.5582822643572787E-002
  -1.1437175002675385E-002
   3.4175921756520927E-002
   1.0870738143358281E-002
  -3.0760485446062101E-002
  -4.1402254349682518E-002
  -5.9017847662544212E-002
   3.2107488322544946E-002
   1.4661480337697652E-003
   7.9103808034575479E-002
  0.10634626704565608     
 -0.12394808443365246     
   3.4530215494268351E-002
  0.10366902954996632     
   7.4036846236919002E-002
   2.9949015025001077E-002
  -1.2105296929204559E-002
  -3.7568666002310791E-002
  -1.2386039901880440E-002
 -0.12059723670830677     
   4.3585271496334510E-002
   5.5047429647888772E-003
   1.7486589351649703E-002
  -4.8428557394218100E-002
   4.9796046375558504E-002
  -1.0405919502865261E-002
   2.5046063653971298E-002
  -2.6025993022151774E-002
  -3.0338397209838566E-002
   8.1165511077846628E-002
   7.0715951792623216E-002
   3.3222361530593394E-002
  0.10536437827920343     
  -2.1941322518501123E-002
  0.10820287851285354     
  -5.1055202424389164E-002
   8.0383249177027938E-002
  -3.8281668717170966E-002
   7.7438627438694424E-003
  -5.6410145120074147E-002
   6.2208568931825095E-002
  -7.8251583233415578E-002
   9.9113395336538179E-002
  -7.7785481185285679E-002
  -5.5194476870170810E-002
   7.6533393325535048E-002
   3.0682978474862732E-002
 -0.13671922309821768     
  -1.7750920038284036E-002
  -5.6462367698908174E-002
  -7.9763001453477825E-002
  -8.6653676354307679E-002
  -7.7125435830318223E-002
  -5.9476634661136278E-002
  -6.2987205815624642E-002
  -1.1713422903381072E-002
  -4.9824663193365766E-002
 -0.10328354023908323     
 -0.14451120765046044     
  -5.8279900389248615E-002
   8.2314448453683839E-002
   4.2984369427152128E-002
  -4.5376997168088011E-002
  -5.2775578148219579E-002
  -4.0191451750015338E-002
  -5.2399310289449913E-002
  -1.2123318892555902E-002
  -2.9210256770997485E-003
  -2.7982032181662956E-002
   8.6443314588532522E-002
  -5.1543987825263510E-002
   5.5371920584518640E-002
  -2.1756845802193132E-002
  -4.1309854346177205E-002
   3.3580654644572001E-002
  -6.9962095719599285E-002
   7.4620408227694252E-002
  -7.8294313594102438E-002
   7.8537336586717091E-002
   7.8732765854340001E-003
  -6.8917813023465252E-002
  -6.6357926222399707E-002
  -1.2492592418553975E-002
  -6.3914586167641924E-002
  -9.1023422727115874E-002
  -8.9792991144523326E-002
  -7.1602725324657765E-002
  -5.3982803025824228E-002
  -4.8756093636733569E-002
  -5.5832063285110922E-002
 -0.15476258333434184     
 -0.19577670618208784     
   2.5060830738734090E-002
   5.8558424703624538E-002
  -3.9604964900132253E-002
   3.1511797267120535E-002
   6.3553131273193619E-002
  -1.6202530796548889E-002
   1.5868316759835421E-002
   7.1594947396020459E-002
  -7.0485570787563817E-002
  -4.9667042169087967E-002
 -0.10986361193415264     
   6.0624826909279764E-003
 -0.14937492899813457     
   7.2080554344880171E-002
   3.3298103151985337E-002
  -4.3088647139468861E-002
  -1.6515279928083687E-002
  -6.2838573045961021E-003
  -3.2349241474544474E-002
 -0.17509056473038312     
 -0.17740253873708950     
 -0.13440341941039019     
  -6.8892384346670360E-002
  -1.1464259067239170E-002
   1.3336982340623537E-002
  -2.9565055471225607E-003
  -1.8557802272291257E-004
   1.2992212934547527E-002
  -4.5138504858410908E-002
 -0.19422336988697644     
  -2.8856957117331515E-002
   6.8149803704948761E-002
  -6.7297416246647951E-002
   7.0199003769010310E-002
   7.4805365164226742E-002
   4.7587201661968524E-002
  -2.8550566984417325E-002
 -0.11195572127999033     
 -0.12244865745620445     
   3.6371932756982389E-002
 -0.21741553713861780     
   7.4431542786914912E-002
 -0.18778697271645420     
   5.6295024281886388E-002
 -0.12181723370262240     
  -1.5359173875493091E-002
  -4.7330115793487254E-002
 -0.10998465154785012     
 -0.18717583509397470     
  -4.2496562195016088E-004
  -2.3488454884122427E-002
  -6.6302981273543823E-002
  -9.3666512556250456E-003
  -4.0220351795614839E-003
   1.6832447611188742E-002
   5.4286352094611839E-003
  -1.5590710916256816E-002
 -0.16971772536886306     
 -0.18958817319338478     
   5.0032002516394933E-002
   1.3210620770362856E-002
 -0.10844630071441683     
  -7.6333647610892397E-002
 -0.15554038310126392     
   7.4803219365905005E-002
  0.21244831200594985     
 -0.11459609507736276     
   2.6458806599677486E-002
  -5.5164628626755585E-002
 -0.13753576108552651     
  -4.1424764714641550E-003
 -0.17060224716435152     
 -0.14632762052334269     
  -8.4227968787320709E-002
  -2.0944741688208469E-002
   8.9723492297811222E-003
  -2.1259514556533923E-002
  -2.1718743548975322E-002
   6.0891847345115852E-002
 -0.15508158914139414     
 -0.11356446657215868     
 -0.10359462356836867     
  0.12242835054087077     
   7.0282974939989598E-002
 -0.10986859635330040     
  -6.9307713010675981E-002
 -0.12825445745479858     
 -0.14333642924399817     
  -2.3547782923292855E-002
  -1.2337973418750231E-002
  -9.5721637714475075E-002
  0.10827118546161664     
 -0.13616657547674366     
   3.9679322100947184E-002
  -4.7162280136718665E-002
  -7.6967664820043850E-003
 -0.11577876490585258     
  0.10619036613889662     
  0.18112827436470080     
  0.18013147426064438     
  0.10589578209615860     
 -0.10160706369484654     
   4.1593322982192934E-004
   1.3286405540689439E-002
  0.11166815626114593     
  0.25267962340133115     
  0.24738482795976244     
 -0.13813383522302461     
  -7.6741153778340121E-002
   5.6754316540735858E-002
  -1.5041076123598833E-002
  0.12510273219877482     
 -0.12333358175175932     
  0.29716900450136513     
 -0.12060098717341620     
  0.13471787946555586     
  -3.1728122019379350E-002
  -5.6454070601489438E-003
  0.24931899875828434     
  0.32292763743670971     
  0.30332936001280714     
  0.20155221061102019     
  -6.3792410313830011E-002
 -0.12922818429686603     
  0.15485471772897141     
   3.0422748100100074E-002
  0.14594396097935441     
  0.25896554866189381     
 -0.14469291267639395     
   9.7117388572961191E-002
  0.20592678655329874     
  0.24353480783024051     
  0.30744542342516501     
  0.32416069307060569     
 -0.10063866805716040     
   2.2701654733387013E-002
  0.17156127333650628     
  -4.8725816425926757E-002
  0.27927492289158856     
  -6.8385523894507180E-002
  0.30400918118347942     
  0.24742152270005000     
  0.14591941928876401     
   4.5109184986994941E-002
  -3.8365040054589711E-002
  -3.6529099916767477E-002
   7.7604755572119863E-002
 -0.14299234880592715     
  -4.5875107689182258E-002
  0.18409203873834296     
  -7.8923589125087776E-002
   5.9363149467094735E-002
  -1.5581409561285713E-002
  0.18024359017087388     
  -5.5645551332535848E-002
  0.21741506288820900     
   2.5543950593357463E-002
  0.11241493684055845     
   3.4756650796880936E-002
  -7.2518488875079723E-002
 -0.11316469461984641     
  -7.6003157617670208E-002
  0.11829351437006913     
  0.22056411551816829     
   8.3468373627258743E-002
  -7.9847583347017234E-002
  0.22169932093819750     
  0.31245167062564944     
   4.3194756507129360E-002
  0.21311423262915052     
  0.31756497804456163     
  0.36261363246476308     
  0.38865019138510126     
  0.33017176600201376     
  0.16487969844682510     
  0.35466431460377223     
  0.33202113314582810     
  0.41986920307334324     
  0.38306704326227869     
  0.27385480779295684     
  0.33022428257000008     
  0.45096028578313707     
  0.12978479067510032     
  0.27381400319482624     
  0.12470742056414845     
   1.5545496537061705E-003
   1.9233434983157487E-002
  -1.3744652222674797E-003
  -1.3152519970019836E-008
  -5.0621405891230335E-009
  -0.0000000000000000     
  -3.1770963020661749E-002
  -2.4242523347897744E-002
  -3.6149607508125001E-002
  -5.0429326979188907E-002
  -4.2664783360814459E-002
  -3.1509552696763615E-002
  -3.0571856713113740E-002
  -3.9170550020619567E-002
   3.7277553378487503E-002
   6.9010154960696568E-002
  -4.2013271850603488E-002
  -5.0213931690726375E-002
  -4.2535146300226964E-002
  -7.3984533096228378E-002
  -4.1300972411149980E-002
   2.5339408962432534E-002
  -1.8712100050671969E-002
  -1.3054997225347410E-002
  -2.7669434176761216E-002
  -3.0294559818008365E-002
  -2.7150763842410740E-002
  -9.4844331341752235E-003
   9.5674620499611972E-003
   3.7991736710675525E-003
  -3.0540393806838439E-002
  -4.2593902059224156E-002
   7.8249772684880516E-004
  -9.9018090002714106E-003
  -2.5156207985539483E-002
  -2.5271896411578947E-002
  -1.5572418178679704E-002
  -7.4239209219499266E-003
  -3.7110017418256220E-003
  -6.4323908910454385E-003
   4.4546874800581613E-003
  -2.9426165162821028E-002
  -2.8931283234769484E-002
  -1.5638863623183497E-002
  -4.4366402556579365E-002
  -5.1319005390062393E-002
   4.1741152027872430E-002
  -4.9988580064685789E-002
  -4.0213546699035180E-002
  -3.3853970713048437E-002
  -3.9672780907331645E-002
  -4.2376572779737325E-002
   4.2692296333532026E-003
   6.6119662975933947E-004
  -7.7154695806067233E-003
  -1.7517535936724504E-002
  -2.5726499301997167E-002
  -1.3793806143235885E-002
  -2.5201883388992007E-002
  -2.3381902691004285E-002
  -2.1654840796465218E-002
   1.6789618067062844E-002
   1.0018647419127431E-002
  -3.7292498033364161E-003
   2.0784821054593446E-002
   3.5893509745580809E-002
   5.0399135106612702E-002
   6.1753805613631640E-002
   6.8218496110896643E-002
  -8.7912197052052998E-003
  -1.1310879458985620E-002
   4.5239675047030005E-002
   5.0716464929863002E-002
   4.4436601408898602E-002
   2.6814101800863823E-002
   2.9355856345173494E-003
  -4.9448401172805315E-002
  -4.6009050039512625E-002
  -3.3360358906033366E-002
  -1.4620746901909744E-002
   1.8098027171740971E-002
   4.2462539966774890E-002
   2.2944151812059214E-002
   1.9116012658964419E-002
   9.6973627711251474E-003
  -2.8898433380016568E-002
  -8.7718209274742671E-004
  -8.5594371323334077E-003
  -8.6223757463507987E-003
   1.2310396566035050E-002
   2.7392779528038574E-002
  -5.8360943398189029E-002
  -2.5533663224939999E-003
   3.2814440115940854E-002
   5.0138764174698716E-003
   2.8586801756775485E-002
   1.1456209094687465E-002
   1.8190597989039169E-002
   1.4971139001080536E-002
   6.6863639318653946E-003
   1.4802179186998998E-002
  -1.3573146467395249E-003
   1.1526512903046793E-002
  -3.3479823677614231E-003
   7.0022450825123926E-003
   8.7402834385551589E-004
  -4.1124096722896200E-002
   4.3238653293286656E-003
   1.9987264475219257E-002
   2.9252280405576439E-002
   3.5081679429412947E-002
   3.6227762193165057E-002
  -2.8474087878462583E-002
   3.2598028876512516E-002
   4.8981968032818748E-002
   3.2418301806493743E-002
   3.7929990073936465E-002
  0.11530964933477578     
   9.1468838748657910E-002
  -8.7270369957394664E-002
   9.0609701575908308E-003
   3.8855969013523312E-002
   1.1792093721812773E-002
   5.6165255729412646E-003
   7.6505118930097170E-003
   2.1397990377628597E-002
  -1.9648053638861768E-002
  -1.1044282349083003E-002
   3.2078689093570069E-002
   1.7590275478287502E-002
   7.7802814502645427E-003
   3.2793180698074326E-002
   5.1555487181021209E-002
   5.8206820151471425E-002
   2.4011329580263710E-002
   5.1959339394769183E-002
   5.2908741946138045E-002
   3.7089552356719298E-002
   6.3477912248019228E-002
   2.0592696472844941E-002
   6.8833368378251894E-002
   6.3194266088113932E-003
   1.2756026650889669E-002
   2.5960888045215895E-002
   4.2088280162371740E-002
   5.7405589359909276E-002
   6.9221918050889925E-002
   7.6012951734416162E-002
   7.7180670984406174E-002
   7.2697137534906670E-002
   6.2954420743527195E-002
   2.9691772038777896E-002
   1.8256540507198618E-002
  -9.5996609093244797E-002
  -9.8239778765249808E-002
   1.6588426516928921E-003
  -1.2805599744879371E-003
   1.2404817892258528E-002
   7.0412404945243035E-002
   6.4603280089366624E-002
   5.3499660417292441E-002
   6.1367327583592882E-002
  -2.0245801104335409E-002
   4.0024711488125371E-002
   4.0427880448641818E-002
   6.1112847564577431E-002
   6.8592706309207191E-002
   6.0916863464981881E-002
  -4.3705371334147140E-002
   5.8878430585912068E-003
   9.0930673008082080E-004
   6.3200187895767299E-002
   7.0130703513246427E-003
   7.1271947750155565E-002
   2.1015876227942744E-002
   6.3111403282980233E-002
   3.8018442016256128E-002
   4.2902536472221142E-002
   1.9354337903066593E-002
   4.1755535905477023E-002
   1.5463274941093386E-003
   7.1425003912216289E-002
  -4.7639468828592595E-003
   6.8742974294565384E-002
   1.0984435782971447E-003
   6.3312703178871541E-002
   1.5448466239211018E-002
   5.5374408806234343E-002
   3.2654837424923797E-002
   4.4555034157802376E-002
   4.7591041825792671E-002
   3.0635797665370550E-002
   5.7136932462117859E-002
   6.0632110304034037E-002
   5.9303744984984919E-002
   5.5135559448021204E-002
   4.9836818138863356E-002
   4.4223698740139691E-002
  -2.0661031842176651E-002
  -1.1636661554551481E-002
   2.7710651331811959E-002
   1.7528588470452130E-002
   4.0674722779057676E-002
   3.4102572992556521E-002
  -1.1915246488723337E-003
  -2.4810462122667735E-002
   6.1620287522564390E-002
   7.1399117357430195E-002
   6.3158557884492678E-002
   1.1575693227016610E-002
  -1.4768500762908325E-002
   9.0594535164635170E-004
   1.8604551538337198E-002
   1.9469797230385395E-002
   6.5343833966394179E-003
  -1.8624767654993723E-002
   3.8433457115271255E-002
  -2.9467590587001286E-002
   2.9480826970758673E-002
  -2.4203526159967056E-002
   6.5004767843336274E-003
  -7.5215914910951942E-003
  -6.6593749289605049E-004
  -2.9082068542972844E-003
   3.3552864799282496E-002
   2.8969260528436243E-002
   2.6590828013151524E-003
   1.6282124422005519E-002
  -2.5500115100252942E-004
  -1.6014421602599901E-002
  -3.1359523426295027E-002
  -8.4690606296273577E-002
  -6.5712730926795693E-002
  -3.4690190605600824E-003
  -6.6667577497067809E-002
  -4.7233172421740036E-002
  -2.3685957081251072E-002
  -7.4770368562682932E-002
  -3.3521549416839366E-002
   5.5429050759569234E-002
   3.1031348458044915E-002
  -3.3382096802760698E-003
  -4.8170213389142874E-002
   5.1696404821805181E-002
   2.8190801346571207E-002
   1.7186668541464799E-002
  -7.3085345871905308E-003
   2.3768366579339145E-002
  -3.9913971225354852E-002
   1.6966252423736474E-002
  -5.6809577410146403E-002
  -5.0889243888494265E-004
  -5.3140182306917971E-002
  -3.3244803427807230E-002
   7.9348793430763107E-002
  -7.4804569299575206E-003
  -7.8823173248752584E-002
   1.3085256950267727E-002
  -8.1853743566325590E-002
   2.0928895653252417E-002
  -7.5362014703923050E-002
   1.4116785897426475E-002
  -6.0668787669743554E-002
  -4.3875756669035648E-003
  -2.9147548150846241E-002
  -5.4577915762560818E-002
  -7.6263485656865304E-002
  -9.1365556151452199E-002
  -8.9848356654684158E-002
  -8.4443522499110565E-002
  -6.0799872713605083E-002
 -0.10326286820619264     
  -9.9484607052123822E-002
  -5.6380789049431418E-002
  -3.1413989998860969E-002
  -2.7350965455625324E-002
  -2.4039294124759882E-004
   2.0114218839087889E-002
   2.3729538632092508E-002
   6.4515273339777520E-003
  -4.8137593275583965E-002
  -1.1342167985439328E-002
   2.4508889781071911E-002
  -7.0015162361565381E-002
  -6.8907196702629903E-002
  -4.7775418166742863E-002
  -1.7845977953112813E-002
  -1.0971552863839780E-002
   7.4871903497569971E-003
  -4.9372251261916127E-002
   1.2875642365396844E-002
  -6.0826893795797154E-003
  -5.3519256885093507E-002
  -2.1668984400393283E-002
  -7.6670445837795004E-002
   6.1808923044765320E-003
  -9.0881980284191047E-002
   1.9178400554188957E-002
   1.4109632734420932E-002
 -0.10209352166235652     
  -5.0775297001442159E-003
  -9.4891370009895601E-002
  -8.0554399192936055E-002
  -5.4469266838931316E-002
  -7.2030120695011773E-002
  -8.2311572223855822E-002
  -8.9644680028654805E-002
  -9.0797839762075727E-002
  -5.7326785538234344E-002
  -3.9434334902866651E-002
  -4.5123667480322344E-002
  -5.5476486496157391E-002
   4.5674303199009336E-002
  -8.1665210151651971E-002
  -4.5779095679100976E-002
  -7.5921451804204745E-002
  -6.1547262241947322E-002
  -2.6583139661188308E-002
  -7.3843185520003615E-002
  -8.2787733423735591E-002
  -6.4111200461836881E-002
  -5.0655632080902402E-002
  -2.8059484491486417E-002
  -6.3198503669371089E-002
   7.7213374182667311E-003
  -6.3598668983470552E-002
   2.7654884343823519E-002
   2.5129640487769150E-002
   4.0424154765021040E-003
  -3.8643508680189384E-002
  -2.4767656227070833E-002
  -4.6575785037910662E-002
  -4.9199842704887045E-002
  -4.2469392540039189E-002
  -2.3614646786782031E-002
  -8.7214244117134812E-003
   7.9991048850077254E-002
   5.7789294385516221E-002
   6.5718316041438671E-002
   2.6413221601167399E-003
  -2.4124518458259751E-002
   1.0760326908464041E-002
  -3.0446653330246459E-002
   3.7071995341842495E-002
   3.8207130743486556E-002
   1.6497347138233302E-002
  -1.6177194636314843E-002
  -4.4939694967798816E-002
   1.1680043863844473E-002
  -5.2205158358189001E-002
  -2.9335999374897698E-002
   2.4427239586975596E-002
   3.4374305102863462E-002
  -9.9671543472872222E-003
   5.7339787371935985E-002
  -4.1319855967076338E-002
  -5.6802921696024050E-002
  -5.1235085569479186E-002
  -2.7113911799883053E-002
   7.9806369694408984E-003
   4.4660708726682027E-002
   7.4493435856305384E-002
   9.2336992175971536E-002
  0.12078151913242463     
  0.10700748366423823     
   1.1393318443003423E-002
   4.9432555431604477E-002
   8.2658023511655743E-002
   1.3843856774524150E-002
   4.9955405012066849E-002
  0.10151621371618358     
   5.7715799248360934E-002
   8.6876938436967255E-002
   8.4550624621080789E-002
   8.5360744738705613E-002