# vtk DataFile Version 3.1
Mesh with Data
ASCII
DATASET UNSTRUCTURED_GRID
POINTS         7552 float
      0.200000E+03      0.000000E+00      0.200000E+03
      0.000000E+00      0.000000E+00      0.200000E+03
      0.197500E+03      0.000000E+00      0.200000E+03
      0.195000E+03      0.000000E+00      0.200000E+03
      0.192500E+03      0.000000E+00      0.200000E+03
      0.190000E+03      0.000000E+00      0.200000E+03
      0.187500E+03      0.000000E+00      0.200000E+03
      0.185000E+03      0.000000E+00      0.200000E+03
      0.182500E+03      0.000000E+00      0.200000E+03
      0.180000E+03      0.000000E+00      0.200000E+03
      0.177500E+03      0.000000E+00      0.200000E+03
      0.175000E+03      0.000000E+00      0.200000E+03
      0.172500E+03      0.000000E+00      0.200000E+03
      0.170000E+03      0.000000E+00      0.200000E+03
      0.167500E+03      0.000000E+00      0.200000E+03
      0.165000E+03      0.000000E+00      0.200000E+03
      0.162500E+03      0.000000E+00      0.200000E+03
      0.160000E+03      0.000000E+00      0.200000E+03
      0.157500E+03      0.000000E+00      0.200000E+03
      0.155000E+03      0.000000E+00      0.200000E+03
      0.152500E+03      0.000000E+00      0.200000E+03
      0.150000E+03      0.000000E+00      0.200000E+03
      0.147500E+03      0.000000E+00      0.200000E+03
      0.145000E+03      0.000000E+00      0.200000E+03
      0.142500E+03      0.000000E+00      0.200000E+03
      0.140000E+03      0.000000E+00      0.200000E+03
      0.137500E+03      0.000000E+00      0.200000E+03
      0.135000E+03      0.000000E+00      0.200000E+03
      0.132500E+03      0.000000E+00      0.200000E+03
      0.130000E+03      0.000000E+00      0.200000E+03
      0.127500E+03      0.000000E+00      0.200000E+03
      0.125000E+03      0.000000E+00      0.200000E+03
      0.122500E+03      0.000000E+00      0.200000E+03
      0.120000E+03      0.000000E+00      0.200000E+03
      0.117500E+03      0.000000E+00      0.200000E+03
      0.115000E+03      0.000000E+00      0.200000E+03
      0.112500E+03      0.000000E+00      0.200000E+03
      0.110000E+03      0.000000E+00      0.200000E+03
      0.107500E+03      0.000000E+00      0.200000E+03
      0.105000E+03      0.000000E+00      0.200000E+03
      0.102500E+03      0.000000E+00      0.200000E+03
      0.100000E+03      0.000000E+00      0.200000E+03
      0.975000E+02      0.000000E+00      0.200000E+03
      0.950000E+02      0.000000E+00      0.200000E+03
      0.925000E+02      0.000000E+00      0.200000E+03
      0.900000E+02      0.000000E+00      0.200000E+03
      0.875000E+02      0.000000E+00      0.200000E+03
      0.850000E+02      0.000000E+00      0.200000E+03
      0.825000E+02      0.000000E+00      0.200000E+03
      0.800000E+02      0.000000E+00      0.200000E+03
      0.775000E+02      0.000000E+00      0.200000E+03
      0.750000E+02      0.000000E+00      0.200000E+03
      0.725000E+02      0.000000E+00      0.200000E+03
      0.700000E+02      0.000000E+00      0.200000E+03
      0.675000E+02      0.000000E+00      0.200000E+03
      0.650000E+02      0.000000E+00      0.200000E+03
      0.625000E+02      0.000000E+00      0.200000E+03
      0.600000E+02      0.000000E+00      0.200000E+03
      0.575000E+02      0.000000E+00      0.200000E+03
      0.550000E+02      0.000000E+00      0.200000E+03
      0.525000E+02      0.000000E+00      0.200000E+03
      0.500000E+02      0.000000E+00      0.200000E+03
      0.475000E+02      0.000000E+00      0.200000E+03
      0.450000E+02      0.000000E+00      0.200000E+03
      0.425000E+02      0.000000E+00      0.200000E+03
      0.400000E+02      0.000000E+00      0.200000E+03
      0.375000E+02      0.000000E+00      0.200000E+03
      0.350000E+02      0.000000E+00      0.200000E+03
      0.325000E+02      0.000000E+00      0.200000E+03
      0.300000E+02      0.000000E+00      0.200000E+03
      0.275000E+02      0.000000E+00      0.200000E+03
      0.250000E+02      0.000000E+00      0.200000E+03
      0.225000E+02      0.000000E+00      0.200000E+03
      0.200000E+02      0.000000E+00      0.200000E+03
      0.175000E+02      0.000000E+00      0.200000E+03
      0.150000E+02      0.000000E+00      0.200000E+03
      0.125000E+02      0.000000E+00      0.200000E+03
      0.100000E+02      0.000000E+00      0.200000E+03
      0.750000E+01      0.000000E+00      0.200000E+03
      0.500000E+01      0.000000E+00      0.200000E+03
      0.250000E+01      0.000000E+00      0.200000E+03
      0.000000E+00      0.000000E+00      0.000000E+00
      0.000000E+00      0.000000E+00      0.197500E+03
      0.000000E+00      0.000000E+00      0.195000E+03
      0.000000E+00      0.000000E+00      0.192500E+03
      0.000000E+00      0.000000E+00      0.190000E+03
      0.000000E+00      0.000000E+00      0.187500E+03
      0.000000E+00      0.000000E+00      0.185000E+03
      0.000000E+00      0.000000E+00      0.182500E+03
      0.000000E+00      0.000000E+00      0.180000E+03
      0.000000E+00      0.000000E+00      0.177500E+03
      0.000000E+00      0.000000E+00      0.175000E+03
      0.000000E+00      0.000000E+00      0.172500E+03
      0.000000E+00      0.000000E+00      0.170000E+03
      0.000000E+00      0.000000E+00      0.167500E+03
      0.000000E+00      0.000000E+00      0.165000E+03
      0.000000E+00      0.000000E+00      0.162500E+03
      0.000000E+00      0.000000E+00      0.160000E+03
      0.000000E+00      0.000000E+00      0.157500E+03
      0.000000E+00      0.000000E+00      0.155000E+03
      0.000000E+00      0.000000E+00      0.152500E+03
      0.000000E+00      0.000000E+00      0.150000E+03
      0.000000E+00      0.000000E+00      0.147500E+03
      0.000000E+00      0.000000E+00      0.145000E+03
      0.000000E+00      0.000000E+00      0.142500E+03
      0.000000E+00      0.000000E+00      0.140000E+03
      0.000000E+00      0.000000E+00      0.137500E+03
      0.000000E+00      0.000000E+00      0.135000E+03
      0.000000E+00      0.000000E+00      0.132500E+03
      0.000000E+00      0.000000E+00      0.130000E+03
      0.000000E+00      0.000000E+00      0.127500E+03
      0.000000E+00      0.000000E+00      0.125000E+03
      0.000000E+00      0.000000E+00      0.122500E+03
      0.000000E+00      0.000000E+00      0.120000E+03
      0.000000E+00      0.000000E+00      0.117500E+03
      0.000000E+00      0.000000E+00      0.115000E+03
      0.000000E+00      0.000000E+00      0.112500E+03
      0.000000E+00      0.000000E+00      0.110000E+03
      0.000000E+00      0.000000E+00      0.107500E+03
      0.000000E+00      0.000000E+00      0.105000E+03
      0.000000E+00      0.000000E+00      0.102500E+03
      0.000000E+00      0.000000E+00      0.100000E+03
      0.000000E+00      0.000000E+00      0.975000E+02
      0.000000E+00      0.000000E+00      0.950000E+02
      0.000000E+00      0.000000E+00      0.925000E+02
      0.000000E+00      0.000000E+00      0.900000E+02
      0.000000E+00      0.000000E+00      0.875000E+02
      0.000000E+00      0.000000E+00      0.850000E+02
      0.000000E+00      0.000000E+00      0.825000E+02
      0.000000E+00      0.000000E+00      0.800000E+02
      0.000000E+00      0.000000E+00      0.775000E+02
      0.000000E+00      0.000000E+00      0.750000E+02
      0.000000E+00      0.000000E+00      0.725000E+02
      0.000000E+00      0.000000E+00      0.700000E+02
      0.000000E+00      0.000000E+00      0.675000E+02
      0.000000E+00      0.000000E+00      0.650000E+02
      0.000000E+00      0.000000E+00      0.625000E+02
      0.000000E+00      0.000000E+00      0.600000E+02
      0.000000E+00      0.000000E+00      0.575000E+02
      0.000000E+00      0.000000E+00      0.550000E+02
      0.000000E+00      0.000000E+00      0.525000E+02
      0.000000E+00      0.000000E+00      0.500000E+02
      0.000000E+00      0.000000E+00      0.475000E+02
      0.000000E+00      0.000000E+00      0.450000E+02
      0.000000E+00      0.000000E+00      0.425000E+02
      0.000000E+00      0.000000E+00      0.400000E+02
      0.000000E+00      0.000000E+00      0.375000E+02
      0.000000E+00      0.000000E+00      0.350000E+02
      0.000000E+00      0.000000E+00      0.325000E+02
      0.000000E+00      0.000000E+00      0.300000E+02
      0.000000E+00      0.000000E+00      0.275000E+02
      0.000000E+00      0.000000E+00      0.250000E+02
      0.000000E+00      0.000000E+00      0.225000E+02
      0.000000E+00      0.000000E+00      0.200000E+02
      0.000000E+00      0.000000E+00      0.175000E+02
      0.000000E+00      0.000000E+00      0.150000E+02
      0.000000E+00      0.000000E+00      0.125000E+02
      0.000000E+00      0.000000E+00      0.100000E+02
      0.000000E+00      0.000000E+00      0.750000E+01
      0.000000E+00      0.000000E+00      0.500000E+01
      0.000000E+00      0.000000E+00      0.250000E+01
      0.200000E+03      0.000000E+00      0.000000E+00
      0.250000E+01      0.000000E+00      0.000000E+00
      0.500000E+01      0.000000E+00      0.000000E+00
      0.750000E+01      0.000000E+00      0.000000E+00
      0.100000E+02      0.000000E+00      0.000000E+00
      0.125000E+02      0.000000E+00      0.000000E+00
      0.150000E+02      0.000000E+00      0.000000E+00
      0.175000E+02      0.000000E+00      0.000000E+00
      0.200000E+02      0.000000E+00      0.000000E+00
      0.225000E+02      0.000000E+00      0.000000E+00
      0.250000E+02      0.000000E+00      0.000000E+00
      0.275000E+02      0.000000E+00      0.000000E+00
      0.300000E+02      0.000000E+00      0.000000E+00
      0.325000E+02      0.000000E+00      0.000000E+00
      0.350000E+02      0.000000E+00      0.000000E+00
      0.375000E+02      0.000000E+00      0.000000E+00
      0.400000E+02      0.000000E+00      0.000000E+00
      0.425000E+02      0.000000E+00      0.000000E+00
      0.450000E+02      0.000000E+00      0.000000E+00
[...]
CELL_DATA        14782
SCALARS model_vs float
LOOKUP_TABLE default
   650.25808687702659     
   649.74362767137018     
   649.56756316170754     
   650.22647014431277     
   649.39401796791310     
   649.91803063982877     
   650.26876833056372     
   650.41379036938270     
   650.44571235525177     
   650.44274743407550     
   649.87329556351335     
   649.90940878775245     
   650.01403997431510     
   650.00201726774117     
   650.01597460958055     
   649.80959611342337     
   650.00884282511151     
   649.77448908493807     
   650.00494286648757     
   650.24431911237309     
   650.07075437107540     
   649.77165507278949     
   650.10595881170775     
   650.07666346268536     
   650.14268656373747     
   650.34168982344590     
   650.40924175392672     
   649.96922669926983     
   650.00293155902352     
   650.08362373427030     
   650.16949431118326     
   650.23215812941532     
   650.29111451605399     
   650.30655432375067     
   649.85577058713625     
   650.30528798066211     
   649.68632065860800     
   649.74997627328798     
   649.58650861183503     
   649.35509780260202     
   649.74853696582284     
   649.47161200876155     
   649.27632563065549     
   649.21705934234501     
   649.92982428113373     
   649.89345817104288     
   649.81626747793041     
   649.73428119342225     
   649.74439401942789     
   650.12151919297082     
   649.69321972970590     
   649.91472820588490     
   649.65569238141836     
   649.87012732615881     
   649.68426198883537     
   649.83150768982841     
   649.77921801733203     
   649.82990910207297     
   649.87386323785665     
   649.87857723135937     
   649.91055033018074     
   649.87051013316989     
   649.42967078410106     
   649.91164089840038     
   649.66468675928820     
   649.72719159786732     
   649.58709543476948     
   649.58990969295053     
   649.58075230704628     
   649.66365892834688     
   650.53393687418361     
   650.82281578307516     
   649.62603251866381     
   649.66284080980336     
   650.01567689065303     
   650.10373029105210     
   649.57048606572994     
   650.27712540383743     
   649.68544461527893     
   649.90173512512877     
   650.47470714284475     
   649.93075921581169     
   650.46801284815467     
   650.06870065067221     
   650.06129362713830     
   650.08316958634464     
   649.96680589381538     
   649.46477336919475     
   649.29210348194886     
   650.21107766854709     
   650.04216013845348     
   649.81136545775735     
   650.16518553332708     
   650.00276971217329     
   650.13042020349440     
   649.21361958299372     
   649.17961879782445     
   650.33075162866942     
   650.02522522638719     
   649.27820158542431     
   649.50444353132264     
   649.80634215228838     
   650.08911764914978     
   650.29139333287731     
   650.28199640836237     
   650.97687718448537     
   650.61852767958862     
   650.30003394464393     
   649.68224637972878     
   650.00429242634686     
   650.11191898827667     
   649.95430389136322     
   650.37007878270742     
   650.20195364172127     
   649.82100700702347     
   650.46953238995343     
   649.59058956634942     
   650.33859214634981     
   649.52504505283514     
   650.16949557984549     
   649.46457032445119     
   649.99783149365805     
   649.41657931783800     
   649.86747486425202     
   649.80935022817778     
   649.86282411656680     
   649.81567746002770     
   650.23411306839137     
   649.83692121085539     
   650.54485285265150     
   650.71227029301224     
   649.69948261210277     
   649.53784970470952     
   651.32842371505433     
   649.43084162607374     
   649.51058087193678     
   649.82914914009280     
   650.27850793509526     
   650.65007240957902     
   649.58812593212804     
   650.59645843702447     
   649.90011168081992     
   650.26009749587342     
   650.61934464728040     
   650.79391454878476     
   649.71954729238951     
   650.22907493837590     
   650.00938159977147     
   649.66282888048033     
   649.83669428460871     
   649.75404640315492     
   649.78613420867566     
   649.84297589756181     
   649.82455649113899     
   649.95630639107821     
   650.40818017669528     
   649.74282182804552     
   650.45196495467951     
   649.79207933973055     
   649.96523318081779     
   649.97534539181197     
   649.56793546550330     
   650.22827203406734     
   649.31637149887536     
   650.47017982307591     
   651.60632534564388     
   649.80228721596541     
   650.30532072920880     
   650.60935378856868     
   650.40859968418306     
   650.04088722904112     
   649.62872583809747     
   649.37698020504706     
   649.45447910887503     
   649.83312279295774     
   650.25125089671678     
   649.13544582694374     
   650.92845845461534     
   650.91355746794784     
   649.97551355582766     
   650.45568346411790     
   650.32228268641711     
   650.03328009604797     
   649.93078368710565     
   649.87218759239477     
   650.19031215771031     
   649.74973282828284     
   649.80524216497065     
   650.61458346922268     
   649.88242086022808     
   650.76131794941250     
   650.04234065906076     
   650.07612840944012     
   650.14308922727480     
   650.27371599310516     
   649.77008749633058     
   649.92005839154660     
   650.65806116156307     
   651.02444286883690     
   651.23858409699483     
   651.12836470585171     
   650.69130219285069     
   650.16868690134277     
   649.89631568828406     
   652.16725504738076     
   649.67068331229768     
   650.16153100135909     
   650.16787553743734     
   649.84368616764561     
   649.74129471307856     
   649.90518577600562     
   649.83708489933997     
   649.96902140754014     
   649.90690534536475     
   649.88762536945148     
   649.60315666601423     
   649.90228794572761     
   649.91953309892051     
   650.63354893391897     
   649.94876631987859     
   651.20475142072360     
   649.92895868614994     
   651.70505022774898     
   649.90218969003877     
   651.89800355188993     
   649.97304432922419     
   650.19514309068495     
   650.22784266835095     
   652.01118715948428     
   651.64102574578317     
   651.68684022737364     
   648.62920483502216     
   651.31554475509938     
   650.64066049383337     
   650.24402721008744     
   651.11046159180682     
   650.99725313972078     
   649.90842573838825     
   649.96285417721526     
   650.20061141429017     
   650.22008711386695     
   650.62286277313831     
   649.74106215887957     
   651.09567137846375     
   650.89278580192399     
   649.88083160886811     
   650.51402892986368     
   650.64638813441047     
   650.21314614432890     
   651.14687660359641     
   651.35119854561856     
   651.06783114777238     
   650.39496468034213     
   649.26564368406503     
   649.31729324151263     
   650.40830878703196     
   650.61784102916818     
   650.35807355750580     
   650.48013457054424     
   650.22039841980234     
   649.62945634011783     
   650.31237438996754     
   650.83839177905588     
   650.11419971941632     
   649.91984018940286     
   650.58029263157516     
   650.75742349375821     
   650.04169542739578     
   650.04639432053523     
   648.90380052788748     
   650.17584540730468     
   648.39094031983188     
   648.34396850059238     
   650.03288244120631     
   648.75817412363779     
   649.67978865660371     
   649.32121750941940     
   649.02681587304312     
   648.77616450881794     
   648.75604760378053     
   649.99923269807880     
   647.90371249130737     
   648.08224800771939     
   648.65326182892920     
   647.64796420382959     
   649.51528922906766     
   649.66276628870628     
   649.31873512818913     
   648.95737128572034     
   648.15006837830458     
   649.87609002347278     
   647.82847050480746     
   649.64701410804707     
   649.66492432554662     
   649.03717423309524     
   650.32936494237356     
   647.23642700542325     
   647.04558250572052     
   647.77007287739468     
   649.18010970087437     
   651.41454761837610     
   651.41586553929051     
   651.82705087440581     
   650.36734167302313     
   648.71832475050337     
   647.65153620766307     
   649.16076098475673     
   650.93224930167742     
   648.59031148503755     
   651.18584321054595     
   647.82922101826614     
   647.41033271385152     
   649.76587404922304     
   649.94836136424362     
   649.68914287204757     
   651.85066846596089     
   649.18319969677179     
   652.41130675493923     
   648.61573774615670     
   648.17236889588446     
   648.17894895719792     
   648.96571169744402     
   651.73753672775320     
   648.51217159602038     
   650.48663769629809     
   649.80744967090016     
   650.57359102886460     
   651.06402176122504     
   650.89676907049841     
   651.17714575649291     
   649.48067633589710     
   651.29075836250024     
   648.58645443974956     
   651.51576232189200     
   649.34186144804789     
   650.31322535586798     
   651.88835558316111     
   651.28105333109636     
   649.94639436745047     
   648.50848340231323     
   648.40107094368432     
   649.30165815591465     
   647.97848460277692     
   650.67536818244037     
   646.42166276055377     
   646.59774113660467     
   650.74486444536842     
   647.55118293765304     
   645.88930844763672     
   646.17887908661987     
   647.76483944872882     
   650.47221279826749     
   653.56688629106134     
   646.86620368396188     
   653.28087955552030     
   650.99814627910268     
   649.18230341614992     
   648.66229414411703     
   654.23311511994768     
   654.06285994039263     
   653.64174416078083     
   653.71034626501444     
   654.24853722333785     
   650.33745943210624     
   650.13084133866221     
   650.01476153505348     
   649.99999982172358     
   649.99999973240824     
   650.00000000000000     
   649.73210387595850     
   649.92734713665425     
   649.94910846735650     
   650.04727093849431     
   649.97795349635214     
   649.94592674836167     
   649.71274004921599     
   649.93211527870392     
   649.88621471234092     
   649.68798002454719     
   649.95611311027199     
   650.00609374336409     
   650.07433688376875     
   650.25376087660766     
   649.89779814068640     
   649.87877227887441     
   649.90119614474531     
   649.88309182365640     
   649.81146581352607     
   649.76700220119392     
   650.06914610755530     
   649.82596104507422     
   649.90807150954572     
   649.87159238514892     
   650.25904871251862     
   649.85409780104669     
   649.79380320944119     
   649.83076893495115     
   649.87705592470695     
   649.74313646897792     
   649.74651287916674     
   649.75997328064136     
   649.78250513427599     
   649.81427864795398     
   649.86622681260553     
   650.08467038158778     
   649.90389530111781     
   649.85529689532484     
   650.06719503649560     
   650.03130514272164     
   649.84097554118694     
   649.98344740918765     
   649.92981203516115     
   649.75203479633035     
   649.77487125387313     
   649.81050277766269     
   649.76583884955051     
   649.74465459391615     
   649.72792127977323     
   649.71507380923390     
   649.70850199488143     
   649.90401302751525     
   649.85564198665020     
   649.88929234852867     
   649.90508006516882     
   649.89462467976625     
   649.89446464606920     
   649.86195622298089     
   649.99896979647701     
   649.96998678943794     
   649.93078606199470     
   649.90418568594919     
   649.90988625207524     
   649.80375423389671     
   649.83380934330239     
   650.02264874421746     
   649.98353593152842     
   649.95889059681690     
   649.95237107157106     
   649.96140294039265     
   650.01696748205586     
   649.97118798096096     
   649.92634176763897     
   649.88959403303670     
   649.85770890283948     
   649.76971522297811     
   649.86122311376778     
   649.87031637794121     
   649.87703263281355     
   649.94260989956547     
   649.87457284064476     
   649.91645175538258     
   649.85957825666878     
   649.90518622480374     
   649.91105992174403     
   649.92738803985242     
   649.77848266708497     
   649.93186055588444     
   649.76725833604905     
   649.96079858222288     
   649.77569446850816     
   649.98862065458172     
   649.80108809685078     
   650.00643380283088     
   649.83331238844926     
   650.00771687111148     
   649.86043236590001     
   649.98976751320947     
   649.87407999059872     
   649.95438961841467     
   650.21537432347293     
   649.85592857543077     
   649.86144826148507     
   649.82695811165877     
   649.81447807394045     
   649.82572235838120     
   650.22285888240140     
   649.85184687064566     
   649.98420840818744     
   650.03443172533127     
   650.06483803687877     
   649.68718879614391     
   650.01022560935326     
   650.19498230980935     
   650.08196977637795     
   650.15597757313992     
   650.19636149773646     
   650.18248308225270     
   650.15358399378624     
   649.77209556867558     
   649.97890609132287     
   649.85333019948030     
   650.06881667226457     
   650.11435200369169     
   649.96985457321614     
   649.94903481343272     
   649.93874343783682     
   649.94570240149028     
   650.18924007144642     
   649.96920022545328     
   650.09692229085078     
   650.00331156339416     
   650.02276331161090     
   650.04190420574525     
   649.95336101483952     
   650.12320734460445     
   650.16398480867645     
   650.19777407039135     
   650.21326102371370     
   650.19885982024437     
   650.15016019519226     
   650.07698378605892     
   650.00293785045881     
   649.95511983000802     
   649.95021871395420     
   650.07882257878236     
   650.13694325589859     
   650.11698312759745     
   649.96279079234728     
   650.12460303460011     
   650.15794894059582     
   649.97967664433691     
   650.15727364255349     
   650.10291090989222     
   650.01710775281299     
   649.76572303005435     
   649.85142739260550     
   649.75208643807457     
   649.88598127228806     
   649.82858325722316     
   649.78943867711769     
   649.77218653645139     
   650.62504269012322     
   649.77481659458010     
   649.78196295400471     
   649.76385506220754     
   649.80400710768038     
   649.71168985616839     
   649.85123579662695     
   649.68905018511737     
   649.92580720284047     
   649.68524102885578     
   649.68440742427674     
   650.18749092929772     
   649.67541291445718     
   650.16317121964801     
   649.65824080600214     
   650.12424129814440     
   649.64443759919050     
   650.06776009393241     
   649.65137651242412     
   650.03111337478686     
   649.69379512249623     
   650.03978405609917     
   649.77674176857408     
   650.09216769227476     
   649.89116833415699     
   650.01284378332878     
   650.10867521346483     
   650.15177513954961     
   650.13831761813344     
   650.09501863987578     
   650.18822573636282     
   650.14328465907477     
   649.87745978997373     
   649.90648004912407     
   649.60910762232061     
   649.62726652429672     
   650.60759364474541     
   650.62441989731531     
   649.69006554421458     
   649.66110852660711     
   649.68953193499715     
   649.81587700413320     
   649.81311598473553     
   649.75102559157756     
   650.26299799612264     
   649.68229114075996     
   650.00668541958078     
   650.09243646495668     
   649.64902080712068     
   650.12796684336058     
   649.75444149611747     
   650.11494909814348     
   650.05974270441061     
   650.06235126876425     
   650.16236897573481     
   650.18824269057973     
   649.77379760911606     
   649.69856623672649     
   650.13294463103205     
   649.68672398758258     
   649.75949310267811     
   649.90406383883078     
   650.18857828774264     
   650.24758415673591     
   650.27403646057292     
   650.06203304224323     
   649.85263737140008     
   649.87011389533779     
   649.99580137747444     
   650.08460738516771     
   650.52374839774154     
   649.97282006849900     
   650.18614262293841     
   650.38334127670601     
   650.59885453048446     
   650.06702882581556     
   650.29952491166750     
   650.56736473246781     
   650.49772640570745     
   650.48644184123350     
   650.62180612793316     
   650.35314570931200     
   650.67085374835244     
   650.17676711731212     
   650.67284411350954     
   650.66383763279578     
   650.03465929803053     
   650.66664457490037     
   649.95180093747854     
   650.67935920227637     
   650.11224090937583     
   650.67894432274397     
   650.24141444331872     
   650.63379331416365     
   650.27294756525714     
   650.52020699259162     
   650.33910458761807     
   650.12739249174558     
   649.95401835007806     
   649.89068925862716     
   649.85134832885512     
   650.00313198706613     
   649.66329217878842     
   649.87458095036845     
   649.99849625846400     
   650.54611508853736     
   650.55658783355170     
   649.60899293485602     
   649.54103684088216     
   649.49804392293413     
   649.46945997069702     
   649.46493523983179     
   650.52049679165702     
   650.49788675006653     
   650.36924529537930     
   650.45247383898709     
   650.33812983171902     
   650.23154205139576     
   650.17565135008351     
   650.41994132437242     
   650.18870589054370     
   650.38163112582436     
   650.37318522322482     
   650.48470992255750     
   649.92856623839896     
   649.82875497151952     
   650.42714424756650     
   649.80505508345561     
   650.21855314403308     
   649.85391969415014     
   649.95917552603760     
   649.90961677014923     
   650.10203289803621     
   650.05931221814217     
   650.19499053702680     
   650.39217001076020     
   650.44806032273743     
   650.38120338291469     
   649.96855243060759     
   649.82666230729421     
   649.79092896840223     
   649.87352615112081     
   650.24056925662683     
   650.22027875356389     
   650.30003941463883     
   649.77799499512344     
   650.13479282481421     
   649.96595014540571     
   649.61468214570357     
   649.50771026664142     
   649.91181616889105     
   649.75981814429804     
   649.63657314346744     
   649.72187288141606     
   649.56872215453063     
   649.88658979223590     
   649.55960762154098     
   650.07530654309699     
   649.58430994272112     
   649.60839313738165     
   649.61196914939876     
   650.10229621449753     
   649.60191904372618     
   649.70488588394187     
   649.60714025852224     
   649.97136637684855     
   650.13495100385080     
   650.18418608524269     
   649.98640226348903     
   649.97333089199583     
   650.10661182805995     
   649.76318707262442     
   650.33260022367426     
   649.94056664531843     
   649.87950620943980     
   650.03617891540455     
   650.12323512959222     
   650.16237259059267     
   650.13633808619545     
   650.05057344687168     
   650.08018497847888     
   649.80520009494069     
   649.73522582556154     
   650.37608916236752     
   649.89169276674147     
   650.39190434567035     
   650.04867397249825     
   650.34299886590372     
   650.23538101524935     
   650.08357079548159     
   649.91987892595262     
   649.79895393642266     
   649.77849777068798     
   649.87289152038034     
   650.05103323664571     
   649.77156216928199     
   649.74465181609116     
   650.19251461068791     
   650.00936854506074     
   649.83599589216203     
   650.26262351553441     
   650.15525013491470     
   649.80397411444119     
   649.96289198984323     
   650.02906347265764     
   649.81326088424498     
   649.95864031378790     