# vtk DataFile Version 3.1
Mesh with Data
ASCII
DATASET UNSTRUCTURED_GRID
POINTS         7552 float
      0.200000E+03      0.000000E+00      0.200000E+03
      0.000000E+00      0.000000E+00      0.200000E+03
      0.197500E+03      0.000000E+00      0.200000E+03
      0.195000E+03      0.000000E+00      0.200000E+03
      0.192500E+03      0.000000E+00      0.200000E+03
      0.190000E+03      0.000000E+00      0.200000E+03
      0.187500E+03      0.000000E+00      0.200000E+03
      0.185000E+03      0.000000E+00      0.200000E+03
      0.182500E+03      0.000000E+00      0.200000E+03
      0.180000E+03      0.000000E+00      0.200000E+03
      0.177500E+03      0.000000E+00      0.200000E+03
      0.175000E+03      0.000000E+00      0.200000E+03
      0.172500E+03      0.000000E+00      0.200000E+03
      0.170000E+03      0.000000E+00      0.200000E+03
      0.167500E+03      0.000000E+00      0.200000E+03
      0.165000E+03      0.000000E+00      0.200000E+03
      0.162500E+03      0.000000E+00      0.200000E+03
      0.160000E+03      0.000000E+00      0.200000E+03
      0.157500E+03      0.000000E+00      0.200000E+03
      0.155000E+03      0.000000E+00      0.200000E+03
      0.152500E+03      0.000000E+00      0.200000E+03
      0.150000E+03      0.000000E+00      0.200000E+03
      0.147500E+03      0.000000E+00      0.200000E+03
      0.145000E+03      0.000000E+00      0.200000E+03
      0.142500E+03      0.000000E+00      0.200000E+03
      0.140000E+03      0.000000E+00      0.200000E+03
      0.137500E+03      0.000000E+00      0.200000E+03
      0.135000E+03      0.000000E+00      0.200000E+03
      0.132500E+03      0.000000E+00      0.200000E+03
      0.130000E+03      0.000000E+00      0.200000E+03
      0.127500E+03      0.000000E+00      0.200000E+03
      0.125000E+03      0.000000E+00      0.200000E+03
      0.122500E+03      0.000000E+00      0.200000E+03
      0.120000E+03      0.000000E+00      0.200000E+03
      0.117500E+03      0.000000E+00      0.200000E+03
      0.115000E+03      0.000000E+00      0.200000E+03
      0.112500E+03      0.000000E+00      0.200000E+03
      0.110000E+03      0.000000E+00      0.200000E+03
      0.107500E+03      0.000000E+00      0.200000E+03
      0.105000E+03      0.000000E+00      0.200000E+03
      0.102500E+03      0.000000E+00      0.200000E+03
      0.100000E+03      0.000000E+00      0.200000E+03
      0.975000E+02      0.000000E+00      0.200000E+03
      0.950000E+02      0.000000E+00      0.200000E+03
      0.925000E+02      0.000000E+00      0.200000E+03
      0.900000E+02      0.000000E+00      0.200000E+03
      0.875000E+02      0.000000E+00      0.200000E+03
      0.850000E+02      0.000000E+00      0.200000E+03
      0.825000E+02      0.000000E+00      0.200000E+03
      0.800000E+02      0.000000E+00      0.200000E+03
      0.775000E+02      0.000000E+00      0.200000E+03
      0.750000E+02      0.000000E+00      0.200000E+03
      0.725000E+02      0.000000E+00      0.200000E+03
      0.700000E+02      0.000000E+00      0.200000E+03
      0.675000E+02      0.000000E+00      0.200000E+03
      0.650000E+02      0.000000E+00      0.200000E+03
      0.625000E+02      0.000000E+00      0.200000E+03
      0.600000E+02      0.000000E+00      0.200000E+03
      0.575000E+02      0.000000E+00      0.200000E+03
      0.550000E+02      0.000000E+00      0.200000E+03
      0.525000E+02      0.000000E+00      0.200000E+03
      0.500000E+02      0.000000E+00      0.200000E+03
      0.475000E+02      0.000000E+00      0.200000E+03
      0.450000E+02      0.000000E+00      0.200000E+03
      0.425000E+02      0.000000E+00      0.200000E+03
      0.400000E+02      0.000000E+00      0.200000E+03
      0.375000E+02      0.000000E+00      0.200000E+03
      0.350000E+02      0.000000E+00      0.200000E+03
      0.325000E+02      0.000000E+00      0.200000E+03
      0.300000E+02      0.000000E+00      0.200000E+03
      0.275000E+02      0.000000E+00      0.200000E+03
      0.250000E+02      0.000000E+00      0.200000E+03
      0.225000E+02      0.000000E+00      0.200000E+03
      0.200000E+02      0.000000E+00      0.200000E+03
      0.175000E+02      0.000000E+00      0.200000E+03
      0.150000E+02      0.000000E+00      0.200000E+03
      0.125000E+02      0.000000E+00      0.200000E+03
      0.100000E+02      0.000000E+00      0.200000E+03
      0.750000E+01      0.000000E+00      0.200000E+03
      0.500000E+01      0.000000E+00      0.200000E+03
      0.250000E+01      0.000000E+00      0.200000E+03
      0.000000E+00      0.000000E+00      0.000000E+00
      0.000000E+00      0.000000E+00      0.197500E+03
      0.000000E+00      0.000000E+00      0.195000E+03
      0.000000E+00      0.000000E+00      0.192500E+03
      0.000000E+00      0.000000E+00      0.190000E+03
      0.000000E+00      0.000000E+00      0.187500E+03
      0.000000E+00      0.000000E+00      0.185000E+03
      0.000000E+00      0.000000E+00      0.182500E+03
      0.000000E+00      0.000000E+00      0.180000E+03
      0.000000E+00      0.000000E+00      0.177500E+03
      0.000000E+00      0.000000E+00      0.175000E+03
      0.000000E+00      0.000000E+00      0.172500E+03
      0.000000E+00      0.000000E+00      0.170000E+03
      0.000000E+00      0.000000E+00      0.167500E+03
      0.000000E+00      0.000000E+00      0.165000E+03
      0.000000E+00      0.000000E+00      0.162500E+03
      0.000000E+00      0.000000E+00      0.160000E+03
      0.000000E+00      0.000000E+00      0.157500E+03
      0.000000E+00      0.000000E+00      0.155000E+03
      0.000000E+00      0.000000E+00      0.152500E+03
      0.000000E+00      0.000000E+00      0.150000E+03
      0.000000E+00      0.000000E+00      0.147500E+03
      0.000000E+00      0.000000E+00      0.145000E+03
      0.000000E+00      0.000000E+00      0.142500E+03
      0.000000E+00      0.000000E+00      0.140000E+03
      0.000000E+00      0.000000E+00      0.137500E+03
      0.000000E+00      0.000000E+00      0.135000E+03
      0.000000E+00      0.000000E+00      0.132500E+03
      0.000000E+00      0.000000E+00      0.130000E+03
      0.000000E+00      0.000000E+00      0.127500E+03
      0.000000E+00      0.000000E+00      0.125000E+03
      0.000000E+00      0.000000E+00      0.122500E+03
      0.000000E+00      0.000000E+00      0.120000E+03
      0.000000E+00      0.000000E+00      0.117500E+03
      0.000000E+00      0.000000E+00      0.115000E+03
      0.000000E+00      0.000000E+00      0.112500E+03
      0.000000E+00      0.000000E+00      0.110000E+03
      0.000000E+00      0.000000E+00      0.107500E+03
      0.000000E+00      0.000000E+00      0.105000E+03
      0.000000E+00      0.000000E+00      0.102500E+03
      0.000000E+00      0.000000E+00      0.100000E+03
      0.000000E+00      0.000000E+00      0.975000E+02
      0.000000E+00      0.000000E+00      0.950000E+02
      0.000000E+00      0.000000E+00      0.925000E+02
      0.000000E+00      0.000000E+00      0.900000E+02
      0.000000E+00      0.000000E+00      0.875000E+02
      0.000000E+00      0.000000E+00      0.850000E+02
      0.000000E+00      0.000000E+00      0.825000E+02
      0.000000E+00      0.000000E+00      0.800000E+02
      0.000000E+00      0.000000E+00      0.775000E+02
      0.000000E+00      0.000000E+00      0.750000E+02
      0.000000E+00      0.000000E+00      0.725000E+02
      0.000000E+00      0.000000E+00      0.700000E+02
      0.000000E+00      0.000000E+00      0.675000E+02
      0.000000E+00      0.000000E+00      0.650000E+02
      0.000000E+00      0.000000E+00      0.625000E+02
      0.000000E+00      0.000000E+00      0.600000E+02
      0.000000E+00      0.000000E+00      0.575000E+02
      0.000000E+00      0.000000E+00      0.550000E+02
      0.000000E+00      0.000000E+00      0.525000E+02
      0.000000E+00      0.000000E+00      0.500000E+02
      0.000000E+00      0.000000E+00      0.475000E+02
      0.000000E+00      0.000000E+00      0.450000E+02
      0.000000E+00      0.000000E+00      0.425000E+02
      0.000000E+00      0.000000E+00      0.400000E+02
      0.000000E+00      0.000000E+00      0.375000E+02
      0.000000E+00      0.000000E+00      0.350000E+02
      0.000000E+00      0.000000E+00      0.325000E+02
      0.000000E+00      0.000000E+00      0.300000E+02
      0.000000E+00      0.000000E+00      0.275000E+02
      0.000000E+00      0.000000E+00      0.250000E+02
      0.000000E+00      0.000000E+00      0.225000E+02
      0.000000E+00      0.000000E+00      0.200000E+02
      0.000000E+00      0.000000E+00      0.175000E+02
      0.000000E+00      0.000000E+00      0.150000E+02
      0.000000E+00      0.000000E+00      0.125000E+02
      0.000000E+00      0.000000E+00      0.100000E+02
      0.000000E+00      0.000000E+00      0.750000E+01
      0.000000E+00      0.000000E+00      0.500000E+01
      0.000000E+00      0.000000E+00      0.250000E+01
      0.200000E+03      0.000000E+00      0.000000E+00
      0.250000E+01      0.000000E+00      0.000000E+00
      0.500000E+01      0.000000E+00      0.000000E+00
      0.750000E+01      0.000000E+00      0.000000E+00
      0.100000E+02      0.000000E+00      0.000000E+00
      0.125000E+02      0.000000E+00      0.000000E+00
      0.150000E+02      0.000000E+00      0.000000E+00
      0.175000E+02      0.000000E+00      0.000000E+00
      0.200000E+02      0.000000E+00      0.000000E+00
      0.225000E+02      0.000000E+00      0.000000E+00
      0.250000E+02      0.000000E+00      0.000000E+00
      0.275000E+02      0.000000E+00      0.000000E+00
      0.300000E+02      0.000000E+00      0.000000E+00
      0.325000E+02      0.000000E+00      0.000000E+00
      0.350000E+02      0.000000E+00      0.000000E+00
      0.375000E+02      0.000000E+00      0.000000E+00
      0.400000E+02      0.000000E+00      0.000000E+00
      0.425000E+02      0.000000E+00      0.000000E+00
      0.450000E+02      0.000000E+00      0.000000E+00
[...]
CELL_DATA        14782
SCALARS model_vp float
LOOKUP_TABLE default
   1099.8339330530227     
   1100.2193383176682     
   1100.3016254138774     
   1099.8908061744169     
   1099.8598219155729     
   1100.1442882191971     
   1099.8232813673358     
   1099.9985700231923     
   1099.9094151076108     
   1099.8322364134688     
   1099.9298047169345     
   1099.9302777953751     
   1099.9096891743177     
   1099.9059565890177     
   1099.9083904010990     
   1100.2909663772423     
   1100.1077025595941     
   1099.9392884498559     
   1099.8582154692797     
   1099.8072427238069     
   1099.8714422516161     
   1099.8643332657655     
   1099.8681638350254     
   1099.8674424920141     
   1099.8432565200587     
   1099.7811464780423     
   1099.7865349498641     
   1099.8579777722218     
   1099.8381841758098     
   1099.8038657031070     
   1099.7757749559837     
   1099.7783037159681     
   1099.9026700549562     
   1099.9950459095264     
   1100.4002493069572     
   1100.0788489102279     
   1100.4088380312260     
   1100.4508469359071     
   1100.4280356485729     
   1100.3526011952522     
   1099.9944626745857     
   1100.0859522522187     
   1100.1852239666091     
   1100.2590957566067     
   1099.7892586371663     
   1099.7900677002947     
   1099.8170283039835     
   1099.8494073114316     
   1099.8421340026312     
   1099.8697364636016     
   1100.6526994224364     
   1099.8328704892319     
   1099.8484767889554     
   1099.9161000882871     
   1099.8488033881131     
   1100.0145328922401     
   1099.8313909842930     
   1100.0983600740847     
   1099.8084312101980     
   1100.1482621145335     
   1099.8084030071220     
   1099.8527701382707     
   1099.9454055058461     
   1100.2016325580375     
   1100.0425570487289     
   1100.2665121489390     
   1100.1288734238051     
   1100.3506261017919     
   1100.1739481793877     
   1100.1735767621151     
   1099.2818291109447     
   1099.5105204083011     
   1100.3123514350677     
   1100.3937666537972     
   1100.0597923114917     
   1099.9776546207456     
   1099.8376473545300     
   1099.9080392813755     
   1100.1346145210828     
   1100.0173941407770     
   1099.9462673395597     
   1099.8677384631696     
   1099.9882278109596     
   1099.8607899294664     
   1099.9208084494865     
   1099.8855093064362     
   1100.2552139066090     
   1100.2330408900025     
   1100.2789198371593     
   1099.9650527850679     
   1100.0680201751486     
   1100.1938452932109     
   1098.7799579387922     
   1099.9381531668487     
   1099.9323528877662     
   1100.3293869996990     
   1100.2421992511659     
   1099.5530230724596     
   1100.1543431241455     
   1100.1199634076479     
   1099.9958807083087     
   1099.8971260654891     
   1099.8408225091277     
   1099.8737264780516     
   1099.9480530620667     
   1098.7406973517889     
   1100.1168403611928     
   1100.0179680622905     
   1100.5122546390082     
   1100.3192499932311     
   1100.1892318291380     
   1100.3179408794642     
   1100.0607585789944     
   1100.1765061471617     
   1100.4471884356608     
   1100.0256914805107     
   1100.4884633715551     
   1100.1080598531366     
   1100.3848284021092     
   1100.2289760216374     
   1100.2355742719187     
   1100.3782157499279     
   1100.0802484906419     
   1100.5148871806882     
   1100.5869159222000     
   1099.7513084767179     
   1100.5636148354074     
   1099.6830832425885     
   1100.4522091570741     
   1099.6408703985871     
   1099.6383701064419     
   1100.1271534565110     
   1099.9929369257684     
   1099.7336952716678     
   1099.8922995838429     
   1099.8074678489145     
   1099.7183193054193     
   1099.6225153666780     
   1099.5424765396169     
   1099.5658415583032     
   1099.3552900997588     
   1100.1851410266436     
   1100.2273227185158     
   1100.1291428593020     
   1099.9521460946160     
   1100.6432965042227     
   1100.5354434544297     
   1100.6672092792917     
   1100.5353678074950     
   1100.4709982589343     
   1100.7095208924300     
   1100.6148001169358     
   1100.6936424718501     
   1100.3528774343961     
   1098.7348436067480     
   1100.3413712250647     
   1100.5030351118253     
   1100.1505607566319     
   1100.7200735044985     
   1099.9611312400702     
   1100.6889855855368     
   1099.9525642922652     
   1100.5449930458678     
   1099.9359668655184     
   1100.3303871836602     
   1100.2784958983609     
   1099.7095730018095     
   1099.5191719681088     
   1099.9718354091278     
   1099.9270673012827     
   1099.9633908221829     
   1100.0189312480575     
   1100.0188605283843     
   1099.9142413161869     
   1099.7115889850579     
   1099.4723654309948     
   1098.8546118385827     
   1099.5088260282923     
   1100.3183379889119     
   1100.4275757721575     
   1099.7727330879031     
   1099.9662421946578     
   1100.4895848274630     
   1100.4717859012728     
   1100.6600934544044     
   1100.2332328467774     
   1100.6382011916896     
   1100.6767514246003     
   1099.7100472756254     
   1100.6124833125737     
   1099.7850722361954     
   1100.1518611427089     
   1099.8594717037440     
   1099.6383207805422     
   1099.7552648078881     
   1099.9939171233755     
   1099.7070878202871     
   1099.6205524236689     
   1099.8064786480379     
   1100.0383919820165     
   1100.2298802649416     
   1100.3069720210083     
   1100.2311052346654     
   1100.0139600395912     
   1099.7113899034089     
   1099.4910184993407     
   1099.9772397488846     
   1099.2684748488246     
   1099.3538032436907     
   1099.6327918870857     
   1100.5762141896537     
   1099.2759367853896     
   1099.9472447027426     
   1099.6166315602602     
   1100.3902132304916     
   1099.7544780585779     
   1099.2300173193071     
   1100.1563028018820     
   1099.4397877620527     
   1099.8349655521329     
   1099.6821106119171     
   1099.4913695765529     
   1099.9317527728308     
   1099.2156759480863     
   1100.1412201469925     
   1099.0827277575765     
   1099.1165616010107     
   1100.2437352435161     
   1099.1475241673854     
   1099.9256007743193     
   1100.0828238283009     
   1098.7319143452321     
   1100.2057417275671     
   1100.2734010095194     
   1099.6005600785566     
   1099.3355104222292     
   1099.0980100710626     
   1098.8512857018404     
   1098.9888354764298     
   1098.8192151385808     
   1098.8545606860371     
   1098.9051507510183     
   1099.1967609703861     
   1101.4006790536282     
   1099.5162123987120     
   1098.9105926867924     
   1099.5928507139854     
   1098.8439040651133     
   1099.6293363880789     
   1099.0651474407864     
   1099.3383869645734     
   1099.5370457243691     
   1099.5817166749939     
   1099.3767227520500     
   1099.3770013828328     
   1100.3881598457408     
   1099.2657761149746     
   1098.5772231801648     
   1098.5023424827680     
   1099.5460003253929     
   1099.7255691878315     
   1099.8777631504493     
   1099.4571052710130     
   1099.0209792960234     
   1099.3214281510081     
   1099.0910540907184     
   1099.7672894527791     
   1098.7653518632974     
   1098.8582275273266     
   1099.3751597313146     
   1099.1444190172217     
   1099.0027988130414     
   1098.8152391121835     
   1099.9194750205227     
   1098.9424915859590     
   1100.1069846039029     
   1100.0085265449206     
   1099.6396968669512     
   1099.1418620616257     
   1098.6087136784324     
   1099.9909701640647     
   1102.1491124013389     
   1100.7050328505613     
   1099.9153445547356     
   1100.6099038989812     
   1100.0965741811365     
   1100.5700889463849     
   1100.9650166890340     
   1100.2070562437777     
   1100.5330642270053     
   1099.4355955894662     
   1100.3885642145801     
   1099.8726130322536     
   1099.3215410338039     
   1100.3400188088963     
   1098.7896780786714     
   1100.8520000441467     
   1100.7279584967127     
   1100.3579191139579     
   1099.8292119209680     
   1098.8110374455314     
   1098.6063115284564     
   1100.8932283535503     
   1100.0207007698918     
   1100.3619709975769     
   1100.6807758651053     
   1100.1860021207726     
   1101.3875084301440     
   1101.1770608711022     
   1101.2042505042616     
   1101.1643060268061     
   1100.9694913588160     
   1100.6569684886551     
   1101.0573671884558     
   1101.2820928455494     
   1099.6530306430998     
   1101.2839354039504     
   1099.3186755324903     
   1101.1153640131204     
   1100.8965668476983     
   1100.7222989661509     
   1100.5840460842519     
   1100.0728870680148     
   1101.5422311163004     
   1100.8493489724146     
   1100.7415293785718     
   1101.1410269979065     
   1100.9522929613265     
   1101.1276329767918     
   1101.3808758782952     
   1101.0019675669696     
   1101.4090112910321     
   1101.3166707510620     
   1101.2021528465536     
   1101.4489335382709     
   1101.0128906079169     
   1100.7156232574296     
   1100.8582858030452     
   1101.3171994067120     
   1101.8596755621511     
   1101.9686118448471     
   1101.3843788793690     
   1102.9949953260764     
   1102.3090159094086     
   1103.0953017343409     
   1102.5702921279060     
   1102.7873341843742     
   1103.3750680771491     
   1103.2819552732865     
   1102.5824316923818     
   1103.4123376644513     
   1103.1915957321439     
   1102.3518911759636     
   1102.9492546690731     
   1102.3554958186139     
   1103.0248810844901     
   1103.0569050033939     
   1102.4829813090007     
   1101.9125151079818     
   1101.5953631832015     
   1101.7051431324146     
   1100.6997123398689     
   1100.8361559522839     
   1099.9668917727158     
   1099.9426681704492     
   1099.9925182785228     
   1099.9999999165220     
   1099.9999999142976     
   1100.0000000000000     
   1099.9848850132678     
   1100.0876510393712     
   1100.0479560879201     
   1100.0206893334200     
   1099.9804582724732     
   1100.0691105208582     
   1099.9779721219020     
   1100.0272339880846     
   1100.0378267890994     
   1100.0465671593652     
   1100.0237665801219     
   1100.0209996423077     
   1100.0244688749835     
   1100.0419791644920     
   1100.0090571567591     
   1100.0691348653395     
   1100.0906643779126     
   1100.1077990881140     
   1100.0090631999858     
   1099.9953380437041     
   1099.9293582742512     
   1100.0293564948711     
   1100.0097635943880     
   1100.1046398631188     
   1099.9016907939949     
   1099.9943332908056     
   1100.0140045901553     
   1100.0196866168931     
   1100.0204006433028     
   1099.9772350495380     
   1099.9847667278120     
   1099.9956752177086     
   1100.0076947319783     
   1100.0180756866660     
   1100.0036227349212     
   1100.0307432905436     
   1100.0258962494070     
   1100.0244382455012     
   1100.0197437245683     
   1100.0149936728408     
   1099.9726030810700     
   1100.0146989599734     
   1100.0175888276490     
   1099.9743788276844     
   1099.9765446001322     
   1099.9833782059641     
   1100.0043010621800     
   1099.9930651586531     
   1099.9831905083622     
   1099.9768885704109     
   1099.9751577658142     
   1100.1007074245877     
   1100.0261168013210     
   1100.0464396104994     
   1100.0689362715416     
   1100.0817797360307     
   1100.0903965329067     
   1100.1180001848286     
   1100.0222131933317     
   1100.0236930391545     
   1100.0249429809203     
   1100.0285800640863     
   1100.0345559026534     
   1099.9927077616710     
   1099.9830614171599     
   1099.9648001610219     
   1099.9736063617445     
   1099.9791516937921     
   1099.9772199065753     
   1099.9683893024514     
   1099.9957349934537     
   1099.9940787172927     
   1099.9975709079858     
   1100.0021848791607     
   1099.9998549125157     
   1099.9698743326805     
   1099.9916281024855     
   1099.9820369242664     
   1099.9748450469622     
   1099.9845543210402     
   1099.9725572588275     
   1099.9906639508106     
   1099.9756944238331     
   1099.9938843535244     
   1099.9915568720935     
   1099.9387845497672     
   1100.0030995921636     
   1099.9840759858239     
   1100.0136827693709     
   1099.9749540331659     
   1100.0249337397024     
   1099.9686636401125     
   1100.0379511794320     
   1099.9681993229201     
   1100.0534924176243     
   1099.9741787162627     
   1100.0713127649274     
   1099.9849376757807     
   1100.0896034323457     
   1099.9976463759101     
   1099.8195812869963     
   1100.1124346511194     
   1100.0199812080048     
   1100.0283102403057     
   1100.0360028189446     
   1100.0448779602368     
   1099.8647936851180     
   1100.0560712267115     
   1099.9896815949558     
   1099.9811670215756     
   1099.9048230923672     
   1100.3489475802392     
   1100.2523336274464     
   1099.8768930875813     
   1099.9686615373043     
   1100.0349871786045     
   1100.0043361987305     
   1099.9855823560069     
   1099.9694530190077     
   1099.9686347693830     
   1099.9577563878092     
   1100.0133881216664     
   1099.9586705821175     
   1099.9597850609468     
   1099.9590255315902     
   1099.9718449114150     
   1099.9769929967456     
   1099.9730637542439     
   1100.0217990526421     
   1099.9644421780365     
   1100.0424105558461     
   1099.9578467534379     
   1100.0439538302894     
   1099.9586871380427     
   1100.0406133949095     
   1099.9857729661348     
   1100.0062207124781     
   1100.0257979405931     
   1100.0409169551831     
   1100.0493495591886     
   1100.0503544980481     
   1100.0442534362928     
   1100.0324041093515     
   1100.0172237593390     
   1100.0019539954526     
   1099.8711898158233     
   1099.8471888846982     
   1099.8474358314888     
   1099.8572449759890     
   1099.8248613573830     
   1099.8612692041384     
   1100.0571471195467     
   1100.0497572712711     
   1100.0561638583595     
   1100.0546675978985     
   1100.0473749053972     
   1100.0242495344214     
   1100.0181091480149     
   1099.9696397412802     
   1099.9832607270541     
   1099.9845268029919     
   1099.9774181945697     
   1100.0693192053054     
   1099.9764081708506     
   1099.9920348976093     
   1099.9914233677255     
   1100.0117623278691     
   1099.9964170487792     
   1100.0309640192097     
   1099.9908336979836     
   1100.0459508648300     
   1099.9829732905703     
   1099.9801438210361     
   1099.8689729473840     
   1099.9859932559607     
   1100.0348592180621     
   1100.0000187879691     
   1100.0115982398409     
   1100.0180970437641     
   1099.9818306400330     
   1100.0350120226692     
   1099.9492180530228     
   1100.0472084742523     
   1099.9187097240083     
   1100.0533315507830     
   1099.8948846165511     
   1100.0531541388063     
   1100.0464684129756     
   1100.0325289031880     
   1100.0102882124725     
   1099.9796933209584     
   1099.9429943965317     
   1099.8307046891775     
   1099.8027125177637     
   1100.0469982350505     
   1099.9931380032947     
   1100.0392559691170     
   1100.0483082965936     
   1100.0674833451067     
   1100.0744982207730     
   1100.0146510068139     
   1100.0284918524594     
   1100.0269097657167     
   1100.0114192023013     
   1100.0383017574356     
   1100.0488890690369     
   1100.0027761320982     
   1100.0522308308471     
   1100.0286756205423     
   1100.0285968778564     
   1100.0269908050598     
   1100.0380594407548     
   1100.0119836481686     
   1100.0505228623219     
   1099.9687651181639     
   1100.0583742575748     
   1099.9378441498543     
   1099.9009833248774     
   1100.0312623625609     
   1100.0135029352591     
   1099.7993691185688     
   1099.9954378525729     
   1099.9766181375821     
   1099.9551750756177     
   1099.8987816113604     
   1099.8415424314894     
   1099.8397273359519     
   1100.0217948701154     
   1099.9004637371495     
   1099.9190926398842     
   1099.9388490765300     
   1100.0454797763493     
   1100.0529093930095     
   1100.0857340989719     
   1100.0738645077990     
   1100.0586117703422     
   1100.0588473033076     
   1100.1019114398414     
   1100.0884281540557     
   1100.0476390959134     
   1100.0693289541746     
   1100.0194158478696     
   1100.0596006035537     
   1099.9891433814219     
   1100.0627941215052     
   1099.9617854133289     
   1100.0723562735043     
   1100.0774322030422     
   1100.1626676198823     
   1100.0697282793990     
   1099.8817391195144     
   1100.0474926971419     
   1099.8630377848053     
   1100.0150348387929     
   1099.8452161094676     
   1099.9798075558535     
   1099.8297943569537     
   1099.9483092536025     
   1099.9231296705163     
   1099.9031425640239     
   1099.8861032773539     
   1099.8706283950355     
   1099.8885428027106     
   1099.9122080203845     
   1099.9317731557514     
   1099.8547860220688     
   1099.8591947404414     
   1099.8900477227935     
   1099.9060071962922     
   1099.8903185257798     
   1099.8972421939829     
   1099.9217355711021     
   1099.9565924352819     
   1099.9889741051086     
   1100.0591014500876     
   1100.0795217138977     
   1100.1068258444661     
   1100.0540276088661     
   1100.0603788826877     
   1100.0663426822412     
   1100.0605868645907     
   1100.0797922192828     
   1100.0381871211941     
   1100.0527939979743     
   1099.9637953155873     
   1099.9302050351180     
   1100.0516792879907     
   1100.0476330029899     
   1099.8784221533258     
   1100.0264191568742     
   1099.8680848648462     
   1099.9915342386571     
   1099.9533313131774     
   1099.8585389279162     
   1099.9217942618025     
   1099.8718521325682     
   1099.8917349710759     
   1099.8917705193930     
   1099.8871299753034     
   1099.8827269070323     
   1099.8724248942058     
   1099.8749785292616     
   1099.9660729784582     
   1099.9595975544325     
   1099.9537778465030     
   1099.9489912329852     
   1099.8336420048158     
   1100.0032770923492     
   1100.0323353085964     
   1100.0078528992155     
   1100.0083648678960     
   1100.0070937117855     
   1099.9881315383730     
   1099.9783281803634     
   1099.9821172429706     
   1099.8998471198413     
   1099.9819138087419     
   1099.9183706558426     
   1099.9654522823644     
   1099.9368452316314     
   1099.9342669267430     
   1099.9004704100230     
   1099.8789384719369     
   1099.9550682636757     
   1099.8786819162815     
   1099.9739440528392     
   1099.8990297554428     
   1099.9934398144744     
   1100.0101119500953     
   1100.0176920612889     
   1100.2357756551421     
   1100.1879726942554     
   1100.1809437932411     
   1100.1097157189074     
   1100.0816741279600     
   1099.9184497136712     
   1099.9314109624688     
   1099.8886142917142     
   1099.8543389592094     
   1099.8345456579930     
   1099.8427510307210     
   1099.8805665806290     
   1099.8979035514526     
   1100.0033851111377     
   1100.0624216443898     
   1099.8123864286570     
   1100.1441725215093     
   1099.8212991004543     
   1100.1672531596760     
   1099.8641022781924     
   1099.9315900637391     
   1100.0080625898875     
   1100.0799921839077     
   1100.1403790550187     
   1100.1882365566821     
   1100.2251293654831     
   1100.2690923320631     
   1100.3622711789126     
   1100.3126362340249     
   1100.1504761529661     
   1100.2073987612112     
   1100.2599556556149     
   1100.1432026381235     
   1100.1914230748207     
   1100.2877222300851     
   1100.1640267964212     
   1100.1686815079916     
   1100.1438271329866     
   1100.1127178066019     