# vtk DataFile Version 3.1
Mesh with Data
ASCII
DATASET UNSTRUCTURED_GRID
POINTS         7552 float
      0.200000E+03      0.000000E+00      0.200000E+03
      0.000000E+00      0.000000E+00      0.200000E+03
      0.197500E+03      0.000000E+00      0.200000E+03
      0.195000E+03      0.000000E+00      0.200000E+03
      0.192500E+03      0.000000E+00      0.200000E+03
      0.190000E+03      0.000000E+00      0.200000E+03
      0.187500E+03      0.000000E+00      0.200000E+03
      0.185000E+03      0.000000E+00      0.200000E+03
      0.182500E+03      0.000000E+00      0.200000E+03
      0.180000E+03      0.000000E+00      0.200000E+03
      0.177500E+03      0.000000E+00      0.200000E+03
      0.175000E+03      0.000000E+00      0.200000E+03
      0.172500E+03      0.000000E+00      0.200000E+03
      0.170000E+03      0.000000E+00      0.200000E+03
      0.167500E+03      0.000000E+00      0.200000E+03
      0.165000E+03      0.000000E+00      0.200000E+03
      0.162500E+03      0.000000E+00      0.200000E+03
      0.160000E+03      0.000000E+00      0.200000E+03
      0.157500E+03      0.000000E+00      0.200000E+03
      0.155000E+03      0.000000E+00      0.200000E+03
      0.152500E+03      0.000000E+00      0.200000E+03
      0.150000E+03      0.000000E+00      0.200000E+03
      0.147500E+03      0.000000E+00      0.200000E+03
      0.145000E+03      0.000000E+00      0.200000E+03
      0.142500E+03      0.000000E+00      0.200000E+03
      0.140000E+03      0.000000E+00      0.200000E+03
      0.137500E+03      0.000000E+00      0.200000E+03
      0.135000E+03      0.000000E+00      0.200000E+03
      0.132500E+03      0.000000E+00      0.200000E+03
      0.130000E+03      0.000000E+00      0.200000E+03
      0.127500E+03      0.000000E+00      0.200000E+03
      0.125000E+03      0.000000E+00      0.200000E+03
      0.122500E+03      0.000000E+00      0.200000E+03
      0.120000E+03      0.000000E+00      0.200000E+03
      0.117500E+03      0.000000E+00      0.200000E+03
      0.115000E+03      0.000000E+00      0.200000E+03
      0.112500E+03      0.000000E+00      0.200000E+03
      0.110000E+03      0.000000E+00      0.200000E+03
      0.107500E+03      0.000000E+00      0.200000E+03
      0.105000E+03      0.000000E+00      0.200000E+03
      0.102500E+03      0.000000E+00      0.200000E+03
      0.100000E+03      0.000000E+00      0.200000E+03
      0.975000E+02      0.000000E+00      0.200000E+03
      0.950000E+02      0.000000E+00      0.200000E+03
      0.925000E+02      0.000000E+00      0.200000E+03
      0.900000E+02      0.000000E+00      0.200000E+03
      0.875000E+02      0.000000E+00      0.200000E+03
      0.850000E+02      0.000000E+00      0.200000E+03
      0.825000E+02      0.000000E+00      0.200000E+03
      0.800000E+02      0.000000E+00      0.200000E+03
      0.775000E+02      0.000000E+00      0.200000E+03
      0.750000E+02      0.000000E+00      0.200000E+03
      0.725000E+02      0.000000E+00      0.200000E+03
      0.700000E+02      0.000000E+00      0.200000E+03
      0.675000E+02      0.000000E+00      0.200000E+03
      0.650000E+02      0.000000E+00      0.200000E+03
      0.625000E+02      0.000000E+00      0.200000E+03
      0.600000E+02      0.000000E+00      0.200000E+03
      0.575000E+02      0.000000E+00      0.200000E+03
      0.550000E+02      0.000000E+00      0.200000E+03
      0.525000E+02      0.000000E+00      0.200000E+03
      0.500000E+02      0.000000E+00      0.200000E+03
      0.475000E+02      0.000000E+00      0.200000E+03
      0.450000E+02      0.000000E+00      0.200000E+03
      0.425000E+02      0.000000E+00      0.200000E+03
      0.400000E+02      0.000000E+00      0.200000E+03
      0.375000E+02      0.000000E+00      0.200000E+03
      0.350000E+02      0.000000E+00      0.200000E+03
      0.325000E+02      0.000000E+00      0.200000E+03
      0.300000E+02      0.000000E+00      0.200000E+03
      0.275000E+02      0.000000E+00      0.200000E+03
      0.250000E+02      0.000000E+00      0.200000E+03
      0.225000E+02      0.000000E+00      0.200000E+03
      0.200000E+02      0.000000E+00      0.200000E+03
      0.175000E+02      0.000000E+00      0.200000E+03
      0.150000E+02      0.000000E+00      0.200000E+03
      0.125000E+02      0.000000E+00      0.200000E+03
      0.100000E+02      0.000000E+00      0.200000E+03
      0.750000E+01      0.000000E+00      0.200000E+03
      0.500000E+01      0.000000E+00      0.200000E+03
      0.250000E+01      0.000000E+00      0.200000E+03
      0.000000E+00      0.000000E+00      0.000000E+00
      0.000000E+00      0.000000E+00      0.197500E+03
      0.000000E+00      0.000000E+00      0.195000E+03
      0.000000E+00      0.000000E+00      0.192500E+03
      0.000000E+00      0.000000E+00      0.190000E+03
      0.000000E+00      0.000000E+00      0.187500E+03
      0.000000E+00      0.000000E+00      0.185000E+03
      0.000000E+00      0.000000E+00      0.182500E+03
      0.000000E+00      0.000000E+00      0.180000E+03
      0.000000E+00      0.000000E+00      0.177500E+03
      0.000000E+00      0.000000E+00      0.175000E+03
      0.000000E+00      0.000000E+00      0.172500E+03
      0.000000E+00      0.000000E+00      0.170000E+03
      0.000000E+00      0.000000E+00      0.167500E+03
      0.000000E+00      0.000000E+00      0.165000E+03
      0.000000E+00      0.000000E+00      0.162500E+03
      0.000000E+00      0.000000E+00      0.160000E+03
      0.000000E+00      0.000000E+00      0.157500E+03
      0.000000E+00      0.000000E+00      0.155000E+03
      0.000000E+00      0.000000E+00      0.152500E+03
      0.000000E+00      0.000000E+00      0.150000E+03
      0.000000E+00      0.000000E+00      0.147500E+03
      0.000000E+00      0.000000E+00      0.145000E+03
      0.000000E+00      0.000000E+00      0.142500E+03
      0.000000E+00      0.000000E+00      0.140000E+03
      0.000000E+00      0.000000E+00      0.137500E+03
      0.000000E+00      0.000000E+00      0.135000E+03
      0.000000E+00      0.000000E+00      0.132500E+03
      0.000000E+00      0.000000E+00      0.130000E+03
      0.000000E+00      0.000000E+00      0.127500E+03
      0.000000E+00      0.000000E+00      0.125000E+03
      0.000000E+00      0.000000E+00      0.122500E+03
      0.000000E+00      0.000000E+00      0.120000E+03
      0.000000E+00      0.000000E+00      0.117500E+03
      0.000000E+00      0.000000E+00      0.115000E+03
      0.000000E+00      0.000000E+00      0.112500E+03
      0.000000E+00      0.000000E+00      0.110000E+03
      0.000000E+00      0.000000E+00      0.107500E+03
      0.000000E+00      0.000000E+00      0.105000E+03
      0.000000E+00      0.000000E+00      0.102500E+03
      0.000000E+00      0.000000E+00      0.100000E+03
      0.000000E+00      0.000000E+00      0.975000E+02
      0.000000E+00      0.000000E+00      0.950000E+02
      0.000000E+00      0.000000E+00      0.925000E+02
      0.000000E+00      0.000000E+00      0.900000E+02
      0.000000E+00      0.000000E+00      0.875000E+02
      0.000000E+00      0.000000E+00      0.850000E+02
      0.000000E+00      0.000000E+00      0.825000E+02
      0.000000E+00      0.000000E+00      0.800000E+02
      0.000000E+00      0.000000E+00      0.775000E+02
      0.000000E+00      0.000000E+00      0.750000E+02
      0.000000E+00      0.000000E+00      0.725000E+02
      0.000000E+00      0.000000E+00      0.700000E+02
      0.000000E+00      0.000000E+00      0.675000E+02
      0.000000E+00      0.000000E+00      0.650000E+02
      0.000000E+00      0.000000E+00      0.625000E+02
      0.000000E+00      0.000000E+00      0.600000E+02
      0.000000E+00      0.000000E+00      0.575000E+02
      0.000000E+00      0.000000E+00      0.550000E+02
      0.000000E+00      0.000000E+00      0.525000E+02
      0.000000E+00      0.000000E+00      0.500000E+02
      0.000000E+00      0.000000E+00      0.475000E+02
      0.000000E+00      0.000000E+00      0.450000E+02
      0.000000E+00      0.000000E+00      0.425000E+02
      0.000000E+00      0.000000E+00      0.400000E+02
      0.000000E+00      0.000000E+00      0.375000E+02
      0.000000E+00      0.000000E+00      0.350000E+02
      0.000000E+00      0.000000E+00      0.325000E+02
      0.000000E+00      0.000000E+00      0.300000E+02
      0.000000E+00      0.000000E+00      0.275000E+02
      0.000000E+00      0.000000E+00      0.250000E+02
      0.000000E+00      0.000000E+00      0.225000E+02
      0.000000E+00      0.000000E+00      0.200000E+02
      0.000000E+00      0.000000E+00      0.175000E+02
      0.000000E+00      0.000000E+00      0.150000E+02
      0.000000E+00      0.000000E+00      0.125000E+02
      0.000000E+00      0.000000E+00      0.100000E+02
      0.000000E+00      0.000000E+00      0.750000E+01
      0.000000E+00      0.000000E+00      0.500000E+01
      0.000000E+00      0.000000E+00      0.250000E+01
      0.200000E+03      0.000000E+00      0.000000E+00
      0.250000E+01      0.000000E+00      0.000000E+00
      0.500000E+01      0.000000E+00      0.000000E+00
      0.750000E+01      0.000000E+00      0.000000E+00
      0.100000E+02      0.000000E+00      0.000000E+00
      0.125000E+02      0.000000E+00      0.000000E+00
      0.150000E+02      0.000000E+00      0.000000E+00
      0.175000E+02      0.000000E+00      0.000000E+00
      0.200000E+02      0.000000E+00      0.000000E+00
      0.225000E+02      0.000000E+00      0.000000E+00
      0.250000E+02      0.000000E+00      0.000000E+00
      0.275000E+02      0.000000E+00      0.000000E+00
      0.300000E+02      0.000000E+00      0.000000E+00
      0.325000E+02      0.000000E+00      0.000000E+00
      0.350000E+02      0.000000E+00      0.000000E+00
      0.375000E+02      0.000000E+00      0.000000E+00
      0.400000E+02      0.000000E+00      0.000000E+00
      0.425000E+02      0.000000E+00      0.000000E+00
      0.450000E+02      0.000000E+00      0.000000E+00
[...]
CELL_DATA        14782
SCALARS cvs float
LOOKUP_TABLE default
 -0.14363247896693368     
  -6.8731093983152650E-003
   2.4310852294284830E-002
   1.0757441312992654E-002
  0.10651218764340052     
 -0.10232549067400723     
  -1.7157460486938031E-002
   3.3888902715505161E-002
   1.0062636819789941E-002
  -2.9189696934426787E-002
   4.8376863868989137E-002
  0.10350515381817063     
   8.3568518843400275E-002
   2.6001952017184103E-002
  -5.3207544091863145E-002
  -3.7495156566387022E-002
 -0.17944432165637866     
  0.13847916578575273     
 -0.10120925276285812     
 -0.18644939449486064     
  -9.5844926870876257E-002
  -2.1287562213756259E-002
  -1.6809769384843222E-002
 -0.16618204625052049     
 -0.19879687830719753     
 -0.14120098901330877     
  -8.2914597006813015E-002
 -0.16473249284677371     
 -0.19148472438559572     
 -0.17333693140671105     
 -0.12330373610104865     
  -6.4267020394095181E-002
   6.1362269681536300E-003
   5.5466550830886498E-003
  -2.9249443723031610E-002
  -7.8403830054862428E-003
   4.5577171106959607E-002
  -1.9594417773587034E-002
   6.9759098552422988E-002
  -3.2024633456089573E-002
 -0.16012994053882065     
 -0.13990870554220175     
 -0.11503231969811037     
  -7.6170484676279820E-002
   3.5894387069285924E-002
  -3.1817000934201103E-002
  -9.3919010952691104E-002
 -0.11384323905224726     
 -0.12491341574944523     
   9.1673737020961821E-002
  0.11627328644069285     
   8.2483198165281491E-002
  -7.4940694625313498E-002
   8.9648617937916480E-002
  -8.1758522117272289E-002
   5.3017962780924327E-002
  -5.0261325005112420E-002
  -1.5815438285108015E-002
   1.2404102997570859E-002
  -9.3468684204186692E-002
   8.2164575980499366E-002
  0.13098765766302284     
   9.8919567061730523E-002
  -7.3117285398660581E-002
   9.8981628300546021E-002
   1.0884564735309826E-002
   2.2666048677849854E-002
   6.9989613351702604E-002
  -6.9142863316654646E-002
 -0.15200100932508637     
  0.15858187992077391     
   3.0689399663407283E-002
   6.9225780498678835E-002
   8.5902766333454172E-002
  -1.7414014288529130E-002
 -0.11909625517139744     
  0.10274147562991903     
   5.7590428338201091E-002
  0.11490267106180629     
  0.14726128860879317     
  -5.5723864729252344E-002
  -9.8736573818124160E-003
  -2.6693141585102623E-002
   3.3210416240250062E-002
  0.13742760981543556     
  -1.4063340878013003E-002
  -5.6072178821626198E-002
   5.2454937992399496E-002
  -1.7847161080856117E-002
   9.8990790510721988E-002
  0.10933343718026507     
   8.0084692655829251E-002
   8.8255111344193310E-003
 -0.17581135947165658     
 -0.17016248235912138     
  -6.5939577174952732E-002
  -7.1099638272314122E-002
   6.2717859209242194E-002
  0.10069487296565603     
  -6.0395897921805650E-002
  -5.7108131909228824E-002
  -7.8496693509017973E-002
 -0.11881448785771904     
 -0.10808525849883682     
   4.0919566092937308E-003
  0.25380542498750847     
  -1.8333321031499664E-002
  -1.3998545185932201E-002
  -8.4715097947396484E-002
   1.5107039412845941E-002
  -3.9911219559278510E-003
   5.7909124177489252E-002
   1.4941179775814703E-002
   3.4979633080450129E-002
  -3.5092580307817242E-002
  -5.8569073875446243E-002
 -0.10272684291075737     
  -9.7817412651572955E-003
  -7.6577116031134138E-002
   2.2549310128573710E-002
  -1.6532063334974999E-002
   1.2563124246903763E-002
   5.1800995381778098E-002
  -3.4019054599415864E-002
  -8.6023480800485497E-002
   5.8874450351390245E-002
 -0.10987038266297794     
  -1.0720281523960012E-002
  -9.0992881386170121E-002
  -5.6699390915694134E-002
  -2.2724123893970591E-002
   3.0002693753007348E-002
   8.9770609815615618E-002
  0.23866117859007610     
  0.12571524819083127     
  0.12897239978739181     
   9.8032450202831134E-002
   4.4918332569945596E-002
   5.3140824331084913E-003
  0.12752309429226005     
   5.7853627797966163E-002
  -5.0254636868829486E-002
 -0.11596003459771413     
 -0.13586185627457076     
 -0.10692105453755460     
   7.5085723040433872E-002
  -6.9816642224736242E-002
  -6.6997606618766248E-002
  0.15929804438352430     
   7.1703894185756900E-002
   3.3341971051919522E-002
   3.2346562056510778E-002
  -2.7318170712831179E-002
   9.0868387467646514E-002
 -0.27682993842212977     
  -4.7855000318995262E-002
  0.11384377431635292     
  -2.4455844562226131E-002
   8.3286877056798214E-003
  -1.2265264733874001E-002
  -3.9653932704635575E-002
   4.7820128269748796E-004
  -4.7934861838007291E-002
   4.2566185099257421E-002
  -3.1024685412436453E-002
  -1.1391360163618030E-002
  0.15088580551355002     
  0.13237841844026191     
  -2.9254778395969325E-002
  -6.0651573757077318E-002
  -8.7971879670208114E-002
  -7.6474781150780394E-002
  -7.0036247409947378E-003
   9.4236963253881145E-002
  0.15596068671846203     
  0.11594900785878313     
  0.25360659234349803     
  0.19438299462663172     
 -0.16172845896158536     
  -5.1876562359003259E-002
   2.9915703429042664E-002
   2.3689847083997045E-002
  -3.9923252909138118E-002
  -6.2947636955789948E-002
  -3.0090572697100255E-002
  -9.3217892002335351E-003
  0.11133027476527949     
   2.3699933138566397E-002
   1.5578601969671868E-003
  -4.4618372076954044E-002
  -5.1512030700044960E-002
  -9.7050584245518892E-003
   4.0357004796055043E-002
   6.7009150384107027E-002
  0.11166940382245018     
   1.7723403333987101E-002
   1.6290947677890716E-002
   3.4584949299355433E-002
  -6.4933989930562042E-003
  -5.0104564704529245E-002
  -8.6076769640552026E-002
 -0.10381980541973096     
  -9.7761962075668798E-002
  -8.4151449198822503E-002
  0.13833261784248757     
  0.18844749280438261     
  -1.6273878930640612E-002
  0.14241578421931286     
  0.13035552883826634     
   4.3168739751920898E-002
   4.0330680940740826E-004
  0.12258191379429773     
   1.2122108539989712E-002
   8.7416187880205012E-002
  -5.8185857809508107E-002
 -0.34678141947024693     
  0.14107214703374091     
  -4.4332676324159770E-002
  0.15315620770478416     
   3.5800207547715721E-002
  0.17211031512235386     
  0.12074779547342876     
  0.17281818211852390     
  0.16219526694961758     
  0.11603049744082700     
  0.16167973555720982     
  0.15084588218120054     
 -0.25099056828660754     
  0.15829599539308714     
  0.24034489402732256     
  0.14859991199526812     
   4.4475577908863362E-002
  -2.8053917900869932E-002
 -0.19944942800189749     
  0.25251600769795751     
   9.5801659580419765E-002
   6.8013578662420915E-002
 -0.15243402379661192     
  0.14397926539888578     
 -0.37318535460095714     
  0.11196750325638048     
   7.5230837894021005E-002
   7.0204744792573173E-002
  0.31527596460256996     
  0.15142487432139223     
   6.7018212679015046E-002
  0.21635894403595982     
  -3.9690078695332906E-002
  0.21941312262727902     
  -3.5579574714973236E-002
   1.4070746335103135E-002
   8.1428641868866614E-002
  0.14474350319827134     
  0.20065248588972659     
  0.17770245946283098     
  -5.1614988184093068E-002
  -1.7296512646182274E-002
  0.21932744532033718     
   7.3134908807714366E-002
 -0.36382093092026668     
  0.13854152216734611     
   7.5384661717067231E-002
 -0.23456694928529156     
 -0.46199019218246729     
 -0.47299944264772814     
 -0.35828979762885849     
  -6.5712940056322472E-002
 -0.37801954814698419     
 -0.50191913810327637     
  0.12294094311101759     
 -0.50047970458084157     
   8.7889231272042692E-002
  0.10784274416051068     
 -0.15660263410763386     
  0.19386598600021160     
   3.9306054867906545E-002
  0.15257994122869517     
  0.15209236771330420     
   8.2024852065787357E-002
  0.11280724585297407     
  -1.1941428610226996E-002
 -0.11239859383739235     
  0.12365044372952029     
  0.11680531401746158     
  0.12871366832498896     
  0.15841987997743900     
  0.39594143820791255     
  0.50569828850745824     
 -0.16010349372887242     
   1.2097924613789019E-002
 -0.31601935324462682     
  0.16354818768126617     
 -0.17557679689742972     
   3.8268757241110521E-002
   3.3443447644881247E-003
   5.8582006764330841E-003
  0.15866490916581980     
  0.12478932876731996     
   5.4505804989156748E-002
  -5.8952566178103322E-003
   3.3924047449210640E-002
  0.13945609065130773     
 -0.49612277414165118     
 -0.12303154073076668     
 -0.29056491369161752     
 -0.29906064092597551     
  0.20528568064359878     
  0.58122535289951316     
  0.41358783426998691     
  -9.9078780767093103E-002
  0.16781174118868669     
 -0.11557319869752031     
  0.47942271486046223     
  0.63110689864551672     
  0.54405089993939748     
   6.6477647437880316E-002
  0.24936577919657946     
  0.16519883640746469     
 -0.13104808731787043     
 -0.43381270979064190     
 -0.51144276699874536     
 -0.33601415994483291     
  0.13700833505352122     
 -0.14637022181671444     
 -0.76859895273765799     
  0.34862188259310772     
  0.58859528702035635     
 -0.51122612345138896     
  0.48919548848126282     
  0.52286447746232811     
 -0.76156379508803351     
  0.29127286472468783     
 -0.49812562644876801     
  -9.5276651622631076E-002
   4.8935393476387853E-002
  -3.7277618212867514E-002
 -0.77843059511321289     
 -0.84220739279900858     
 -0.67136320616664213     
 -0.36540278557726208     
  -9.1043120209560416E-002
 -0.30881642743617277     
 -0.30028964803028846     
 -0.36285036346144078     
 -0.34130182643025120     
 -0.51074613453287443     
 -0.30121022284444104     
 -0.34802686576485192     
 -0.42511250195679962     
 -0.56355592570510638     
 -0.10677645870695156     
 -0.13655838687148308     
   1.6328009552631972E-002
  -9.8483679443103267E-002
  0.12496957860972566     
   8.1233418252881148E-002
  0.22774072998767922     
  0.21295362877020044     
  0.52601619849136283     
  0.17561956150093655     
  0.80018597954736226     
   2.4556156429646203E-002
  0.43711067621617417     
  -3.4920597234441977E-002
  -9.8774964468498538E-002
  -3.8633476956786415E-003
  -5.4822181896497872E-008
  -8.5611640351914718E-008
  -0.0000000000000000     
  -6.4547703886588773E-002
  -6.5617781893844932E-003
  -7.7583460065381912E-003
   5.1587779376494794E-002
   1.9644835022586044E-002
  -5.1453743783823240E-003
  -6.9161428331016725E-002
  -1.3749926527797052E-002
  -5.3943573050259125E-002
 -0.10890151010492277     
   2.5649546604563360E-002
   4.2812884576573645E-002
   5.1520196610399860E-002
  0.16542568495446666     
  -2.1996517101078042E-002
  -5.2103844780587903E-002
  -2.5888719149643035E-002
  -2.5342171863542692E-002
  -5.2020835069646429E-002
  -5.8894782836096934E-002
  -2.0355291138229595E-002
  -1.3972435418196674E-002
  -2.2434580996831020E-002
  -4.0843811144185865E-002
   4.6921665169080889E-002
  -3.1345637572844275E-002
  -5.6477758158569133E-002
  -3.4779087045886323E-002
  -9.1745700602099672E-003
  -6.4962060347741310E-002
  -6.8140192717910941E-002
  -6.6365284993837786E-002
  -5.8065238548139525E-002
  -4.2650006208956460E-002
  -4.5519516234737399E-002
   4.4345341765385987E-002
   2.8855467283404657E-003
  -2.1300419152602407E-002
   5.0616336111326390E-002
   4.7545901606115937E-002
  -6.7394768048436235E-002
   3.5740177488347492E-002
   1.5833496268282104E-002
  -5.8543323477605859E-002
  -5.0226610084109932E-002
  -4.0943056068787238E-002
  -7.1331320314063376E-002
  -7.8645728230667719E-002
  -7.9803935233504195E-002
  -7.7297272671721484E-002
  -7.3373899454389130E-002
  -1.1699498942127417E-002
  -4.4256974511013951E-002
  -3.6426329045938254E-002
  -2.9854435035100720E-002
  -4.2230272463780423E-002
  -3.3912171515304228E-002
  -2.7923117488139228E-002
  -1.1415378808277924E-002
  -2.2580679748428305E-002
  -3.3520335606790741E-002
  -3.9592150462238185E-002
  -3.6935248078079734E-002
  -4.7618978967569350E-002
  -4.2376220609830345E-002
  -5.0109441857735845E-002
  -6.3361691409698231E-002
  -6.2365121876260698E-002
  -4.8445441460527594E-002
  -2.7125501615423694E-002
   3.8477340148780528E-002
   2.4235616455952763E-002
   3.0354321217618257E-003
  -2.1894288227270343E-002
  -6.2722119405172735E-002
  -7.6834814691748257E-002
  -7.0308190254503078E-002
  -6.8289264472148670E-002
  -5.9804707741294073E-002
  -4.9787076757551365E-004
  -4.9816941022513543E-002
  -2.4188956647048926E-002
  -4.3101264506407784E-002
  -4.6133962535942617E-002
  -6.0664435272175354E-002
   7.8429962211138626E-002
  -5.6477585706050180E-002
  -6.4023926697031969E-002
  -6.5218624374459452E-002
  -5.6065845652852934E-002
  -7.0258064392274944E-002
  -4.0438305222735761E-002
  -6.9954256863642622E-002
  -2.3079839970241316E-002
  -6.4873331643667889E-002
  -9.9811990561007643E-003
  -5.6826228539231305E-002
  -5.2256096915143085E-003
  -4.8093391361096624E-002
  -9.9557523256140062E-003
   1.7140658888199489E-002
  -3.6678361073038054E-002
  -3.8747307908101797E-002
  -5.3970964334339309E-002
  -6.3697187766699553E-002
  -6.5730514282152458E-002
   1.8807926665005911E-002
  -6.0964816621026097E-002
  -1.6198624071725117E-002
  -4.6327411731136676E-003
   6.8699693098074194E-003
   6.9810062939412942E-002
  -3.8309799626799396E-002
   8.6475489869554403E-002
   1.7010281756522951E-002
   3.4536154139129006E-002
   5.0499502006803192E-002
   4.3788237850691081E-002
   2.6791689926412503E-002
  -5.3352954027472387E-002
  -5.4460071996863639E-003
  -9.9452193142426700E-003
  -2.6150329796468468E-002
   1.8139225622605831E-003
  -2.8941199711273846E-002
  -5.1598745141421633E-002
  -6.8203884347815463E-002
  -7.2009519255280097E-002
   4.6930406851411560E-002
  -6.0687245591149387E-002
   1.5793640742749467E-002
  -3.7454979579510564E-002
  -5.5405737662991093E-003
  -9.1606505277307682E-003
  -2.4667871044064281E-002
   3.6325346823275165E-002
   4.7221346028565286E-002
   5.0214617949303306E-002
   4.6431232407118411E-002
   3.6759520443056151E-002
   2.2171024201197265E-002
   4.8996914806688236E-003
  -1.1117725975696643E-002
  -2.1471412301056286E-002
  -2.3073217734084075E-002
   7.7255810185833359E-003
   1.3966349549941521E-002
   2.5227818966066094E-002
   1.3957561124173477E-002
   1.0151349174498395E-002
   1.4869880229065118E-002
  -1.2887862209125044E-002
   6.2596407287642541E-003
  -3.6957469666239269E-003
  -1.3545483201925066E-002
  -9.2867510364779055E-002
   6.4136098447318581E-004
  -7.6430547857605877E-002
  -6.2215889141044478E-002
  -8.6781148419743451E-002
  -9.9132367752272826E-002
  -9.4859245180940702E-002
  0.14977246865763449     
  -3.3436696476502756E-002
  -2.2292268752142269E-002
  -9.5436982265652295E-002
  -1.9473395220108089E-002
 -0.11080492304758974     
  -2.0311039702405633E-002
 -0.10802798351481538     
  -1.9352614888132717E-002
  -9.0027564113691408E-002
  -6.6356214677232211E-002
 -0.15118413680352721     
  -4.8019123428138959E-002
   1.1790442306741217E-002
  -4.1847302516211299E-002
   1.0812091080720593E-002
  -4.7669930605889227E-002
   5.5869486953608570E-003
  -5.9375455580250980E-002
   1.1294519941878961E-003
  -6.8566573142878090E-002
   1.8433070002964397E-003
  -6.8489228533786417E-002
   8.9442966658098491E-003
  -5.6699559363900823E-002
  -3.6077940409647999E-002
  -1.3525201024359921E-002
   3.4227639634837447E-003
   1.0542329648282348E-002
   9.6455790778287032E-003
   1.6495850596243596E-002
   8.9083253020556426E-003
  -4.9815362366655236E-002
  -6.4353102672714713E-002
 -0.11682215133659807     
  -9.9821674806454458E-002
  0.10636181032973842     
  0.13261253180588847     
 -0.10127813552933279     
 -0.11523983277166819     
 -0.10584994674093692     
  -3.9351244005928057E-002
  -1.0208004496674375E-002
  -3.7137516843873411E-002
   4.1052211339664225E-002
  -7.0438751942529174E-002
  -5.8222300896420432E-003
   3.4187427486145533E-002
 -0.11615774142159280     
   5.3237557070179076E-002
  -9.7038091870717075E-002
   4.7771768013693081E-002
  -2.8013579537856589E-002
   2.2687240456023855E-002
   6.2356152438507759E-004
   1.4442418397143794E-002
  -8.0644037297019661E-002
  -9.9428530384366096E-002
   8.2110244381935309E-003
 -0.10163896529179195     
  -8.5676196235768026E-002
  -5.5318424586490403E-002
   6.9832134830130352E-003
   3.3760349651954590E-002
   2.9890870199365836E-002
  -8.8664345757981603E-003
  -2.1465665802961362E-002
  -1.9938521588603993E-002
  -6.1387593678040447E-003
  0.14914858647067705     
  0.11533345673737820     
  -5.9081878922425987E-002
  -4.8724232909968437E-003
   5.9924106966275328E-002
  0.14641847817727366     
  -4.3228986315867850E-002
   1.4569980729509244E-002
   7.9865859148581186E-002
   8.2261380431315728E-002
   5.6427167426848501E-002
  0.13935493137363408     
   3.5009427029572757E-002
  0.17019559200674741     
   1.3819484554940843E-002
  0.17131875712932321     
  0.15156832190602404     
 -0.17239928901471532     
  0.12528273950698479     
  -8.9068342544020157E-003
  0.10386849865748335     
   1.1169623950565893E-002
   9.1444091093302413E-002
   2.6352956801331390E-002
   8.5062449187991621E-002
   2.7753725423294053E-002
   7.8159511523544611E-002
   6.5163592264222220E-002
   4.5397167958966519E-002
   2.4664931770237240E-002
   1.2322635661750864E-002
   3.4038051137157001E-002
   3.9927745393657760E-002
   2.4731992575126541E-002
   4.3121558779271048E-002
   6.6528320476533176E-002
  0.11082319345831050     
   9.4135458695023377E-002
  -1.5481376486048144E-002
  -3.6998302535006987E-002
  -5.2091287448021543E-002
  -5.1007465858373936E-002
  -2.5843296988452832E-002
  0.15074546979641540     
   9.8930110437169760E-002
   3.5242599716390932E-002
  0.17377712011849120     
  0.16250444033059749     
  0.12638996316679693     
   8.3980656448898822E-002
   9.8562312906327429E-002
   5.2565549203087043E-002
  0.14613294623753492     
   4.9046288015066143E-002
   6.9980873538311061E-002
  0.10563431752500231     
   5.4125595240319430E-002
  0.11147463592241846     
   1.3677780584390245E-002
   9.4132717536174221E-002
  -5.2732707770538675E-003
  -2.1205241876926413E-003
   3.4570584897164969E-002
   1.7824586375702518E-002
   3.8263682563389217E-002
   4.0320518869278850E-002
   7.6454591723061557E-002
   9.7134139118240148E-002
  0.10113621244698823     
   6.0998804733233804E-002
   3.9812604542792826E-002
   2.3835625677494462E-002
   1.5373892843479727E-002
   3.8265585990819084E-002
   3.9640484230089520E-002
 -0.13986638056932654     
  0.13280533344197090     
  0.13370608568643874     
  0.15107839800185532     
   8.3576584905986434E-002
   2.3244843469523602E-002
  0.14425142631834481     
  0.12713760280632119     
   7.6855742640103128E-002
   5.2520233664988605E-003
   1.3741804649109322E-002
   2.1815937307911648E-002
  -3.7167246367152719E-002
   3.3473727674220660E-002
  -6.0849774389832384E-002
  -5.6820886346548721E-002
  -3.4753370636888194E-002
   2.8400700217317460E-002
  -7.4225752261765227E-003
   1.1045805912127447E-002
   1.4373480586760329E-002
   1.6381339668005215E-002
   7.6284677461168800E-003
  -5.9150799039171809E-004
   2.0815088729051981E-002
  -7.2767034136183573E-002
  -5.9082806572429585E-002
   4.5519693149348534E-002
   4.7909658042720002E-002
  -8.5430313596081067E-002
  -2.4970155620189755E-002
 -0.11144750107700166     
  -9.9560226002339144E-002
  -5.9855928555887464E-002
  -7.3503452436009132E-003
   4.3004252304722691E-002
 -0.12059164210982648     
   9.0677259743471017E-002
   7.7886688064449608E-002
  -9.6726516608604304E-002
   4.6756839206643086E-003
  -3.7284818647295812E-002
  -3.2618091526547606E-002
   2.3489905532336458E-002
   7.3517960401145485E-002
  0.10430032029813177     
  0.11138840514934356     
   9.4478822493504089E-002
   5.7733917412904165E-002
   9.7520209275057390E-003
  -7.7039915217089430E-002
   3.0408471755819393E-002
   6.6933216394408870E-002
   5.9559867140937604E-002
   7.1462003782171546E-002
   7.7777732112249226E-002
  -1.6945380128055566E-002
  -7.9411269166631757E-003
   5.4906899246816847E-002
 -0.15284974848294777     
 -0.14308490645113472     
 -0.20532804809102242     
 -0.21598676324016253     