# vtk DataFile Version 3.1
Mesh with Data
ASCII
DATASET UNSTRUCTURED_GRID
POINTS         7552 float
      0.200000E+03      0.000000E+00      0.200000E+03
      0.000000E+00      0.000000E+00      0.200000E+03
      0.197500E+03      0.000000E+00      0.200000E+03
      0.195000E+03      0.000000E+00      0.200000E+03
      0.192500E+03      0.000000E+00      0.200000E+03
      0.190000E+03      0.000000E+00      0.200000E+03
      0.187500E+03      0.000000E+00      0.200000E+03
      0.185000E+03      0.000000E+00      0.200000E+03
      0.182500E+03      0.000000E+00      0.200000E+03
      0.180000E+03      0.000000E+00      0.200000E+03
      0.177500E+03      0.000000E+00      0.200000E+03
      0.175000E+03      0.000000E+00      0.200000E+03
      0.172500E+03      0.000000E+00      0.200000E+03
      0.170000E+03      0.000000E+00      0.200000E+03
      0.167500E+03      0.000000E+00      0.200000E+03
      0.165000E+03      0.000000E+00      0.200000E+03
      0.162500E+03      0.000000E+00      0.200000E+03
      0.160000E+03      0.000000E+00      0.200000E+03
      0.157500E+03      0.000000E+00      0.200000E+03
      0.155000E+03      0.000000E+00      0.200000E+03
      0.152500E+03      0.000000E+00      0.200000E+03
      0.150000E+03      0.000000E+00      0.200000E+03
      0.147500E+03      0.000000E+00      0.200000E+03
      0.145000E+03      0.000000E+00      0.200000E+03
      0.142500E+03      0.000000E+00      0.200000E+03
      0.140000E+03      0.000000E+00      0.200000E+03
      0.137500E+03      0.000000E+00      0.200000E+03
      0.135000E+03      0.000000E+00      0.200000E+03
      0.132500E+03      0.000000E+00      0.200000E+03
      0.130000E+03      0.000000E+00      0.200000E+03
      0.127500E+03      0.000000E+00      0.200000E+03
      0.125000E+03      0.000000E+00      0.200000E+03
      0.122500E+03      0.000000E+00      0.200000E+03
      0.120000E+03      0.000000E+00      0.200000E+03
      0.117500E+03      0.000000E+00      0.200000E+03
      0.115000E+03      0.000000E+00      0.200000E+03
      0.112500E+03      0.000000E+00      0.200000E+03
      0.110000E+03      0.000000E+00      0.200000E+03
      0.107500E+03      0.000000E+00      0.200000E+03
      0.105000E+03      0.000000E+00      0.200000E+03
      0.102500E+03      0.000000E+00      0.200000E+03
      0.100000E+03      0.000000E+00      0.200000E+03
      0.975000E+02      0.000000E+00      0.200000E+03
      0.950000E+02      0.000000E+00      0.200000E+03
      0.925000E+02      0.000000E+00      0.200000E+03
      0.900000E+02      0.000000E+00      0.200000E+03
      0.875000E+02      0.000000E+00      0.200000E+03
      0.850000E+02      0.000000E+00      0.200000E+03
      0.825000E+02      0.000000E+00      0.200000E+03
      0.800000E+02      0.000000E+00      0.200000E+03
      0.775000E+02      0.000000E+00      0.200000E+03
      0.750000E+02      0.000000E+00      0.200000E+03
      0.725000E+02      0.000000E+00      0.200000E+03
      0.700000E+02      0.000000E+00      0.200000E+03
      0.675000E+02      0.000000E+00      0.200000E+03
      0.650000E+02      0.000000E+00      0.200000E+03
      0.625000E+02      0.000000E+00      0.200000E+03
      0.600000E+02      0.000000E+00      0.200000E+03
      0.575000E+02      0.000000E+00      0.200000E+03
      0.550000E+02      0.000000E+00      0.200000E+03
      0.525000E+02      0.000000E+00      0.200000E+03
      0.500000E+02      0.000000E+00      0.200000E+03
      0.475000E+02      0.000000E+00      0.200000E+03
      0.450000E+02      0.000000E+00      0.200000E+03
      0.425000E+02      0.000000E+00      0.200000E+03
      0.400000E+02      0.000000E+00      0.200000E+03
      0.375000E+02      0.000000E+00      0.200000E+03
      0.350000E+02      0.000000E+00      0.200000E+03
      0.325000E+02      0.000000E+00      0.200000E+03
      0.300000E+02      0.000000E+00      0.200000E+03
      0.275000E+02      0.000000E+00      0.200000E+03
      0.250000E+02      0.000000E+00      0.200000E+03
      0.225000E+02      0.000000E+00      0.200000E+03
      0.200000E+02      0.000000E+00      0.200000E+03
      0.175000E+02      0.000000E+00      0.200000E+03
      0.150000E+02      0.000000E+00      0.200000E+03
      0.125000E+02      0.000000E+00      0.200000E+03
      0.100000E+02      0.000000E+00      0.200000E+03
      0.750000E+01      0.000000E+00      0.200000E+03
      0.500000E+01      0.000000E+00      0.200000E+03
      0.250000E+01      0.000000E+00      0.200000E+03
      0.000000E+00      0.000000E+00      0.000000E+00
      0.000000E+00      0.000000E+00      0.197500E+03
      0.000000E+00      0.000000E+00      0.195000E+03
      0.000000E+00      0.000000E+00      0.192500E+03
      0.000000E+00      0.000000E+00      0.190000E+03
      0.000000E+00      0.000000E+00      0.187500E+03
      0.000000E+00      0.000000E+00      0.185000E+03
      0.000000E+00      0.000000E+00      0.182500E+03
      0.000000E+00      0.000000E+00      0.180000E+03
      0.000000E+00      0.000000E+00      0.177500E+03
      0.000000E+00      0.000000E+00      0.175000E+03
      0.000000E+00      0.000000E+00      0.172500E+03
      0.000000E+00      0.000000E+00      0.170000E+03
      0.000000E+00      0.000000E+00      0.167500E+03
      0.000000E+00      0.000000E+00      0.165000E+03
      0.000000E+00      0.000000E+00      0.162500E+03
      0.000000E+00      0.000000E+00      0.160000E+03
      0.000000E+00      0.000000E+00      0.157500E+03
      0.000000E+00      0.000000E+00      0.155000E+03
      0.000000E+00      0.000000E+00      0.152500E+03
      0.000000E+00      0.000000E+00      0.150000E+03
      0.000000E+00      0.000000E+00      0.147500E+03
      0.000000E+00      0.000000E+00      0.145000E+03
      0.000000E+00      0.000000E+00      0.142500E+03
      0.000000E+00      0.000000E+00      0.140000E+03
      0.000000E+00      0.000000E+00      0.137500E+03
      0.000000E+00      0.000000E+00      0.135000E+03
      0.000000E+00      0.000000E+00      0.132500E+03
      0.000000E+00      0.000000E+00      0.130000E+03
      0.000000E+00      0.000000E+00      0.127500E+03
      0.000000E+00      0.000000E+00      0.125000E+03
      0.000000E+00      0.000000E+00      0.122500E+03
      0.000000E+00      0.000000E+00      0.120000E+03
      0.000000E+00      0.000000E+00      0.117500E+03
      0.000000E+00      0.000000E+00      0.115000E+03
      0.000000E+00      0.000000E+00      0.112500E+03
      0.000000E+00      0.000000E+00      0.110000E+03
      0.000000E+00      0.000000E+00      0.107500E+03
      0.000000E+00      0.000000E+00      0.105000E+03
      0.000000E+00      0.000000E+00      0.102500E+03
      0.000000E+00      0.000000E+00      0.100000E+03
      0.000000E+00      0.000000E+00      0.975000E+02
      0.000000E+00      0.000000E+00      0.950000E+02
      0.000000E+00      0.000000E+00      0.925000E+02
      0.000000E+00      0.000000E+00      0.900000E+02
      0.000000E+00      0.000000E+00      0.875000E+02
      0.000000E+00      0.000000E+00      0.850000E+02
      0.000000E+00      0.000000E+00      0.825000E+02
      0.000000E+00      0.000000E+00      0.800000E+02
      0.000000E+00      0.000000E+00      0.775000E+02
      0.000000E+00      0.000000E+00      0.750000E+02
      0.000000E+00      0.000000E+00      0.725000E+02
      0.000000E+00      0.000000E+00      0.700000E+02
      0.000000E+00      0.000000E+00      0.675000E+02
      0.000000E+00      0.000000E+00      0.650000E+02
      0.000000E+00      0.000000E+00      0.625000E+02
      0.000000E+00      0.000000E+00      0.600000E+02
      0.000000E+00      0.000000E+00      0.575000E+02
      0.000000E+00      0.000000E+00      0.550000E+02
      0.000000E+00      0.000000E+00      0.525000E+02
      0.000000E+00      0.000000E+00      0.500000E+02
      0.000000E+00      0.000000E+00      0.475000E+02
      0.000000E+00      0.000000E+00      0.450000E+02
      0.000000E+00      0.000000E+00      0.425000E+02
      0.000000E+00      0.000000E+00      0.400000E+02
      0.000000E+00      0.000000E+00      0.375000E+02
      0.000000E+00      0.000000E+00      0.350000E+02
      0.000000E+00      0.000000E+00      0.325000E+02
      0.000000E+00      0.000000E+00      0.300000E+02
      0.000000E+00      0.000000E+00      0.275000E+02
      0.000000E+00      0.000000E+00      0.250000E+02
      0.000000E+00      0.000000E+00      0.225000E+02
      0.000000E+00      0.000000E+00      0.200000E+02
      0.000000E+00      0.000000E+00      0.175000E+02
      0.000000E+00      0.000000E+00      0.150000E+02
      0.000000E+00      0.000000E+00      0.125000E+02
      0.000000E+00      0.000000E+00      0.100000E+02
      0.000000E+00      0.000000E+00      0.750000E+01
      0.000000E+00      0.000000E+00      0.500000E+01
      0.000000E+00      0.000000E+00      0.250000E+01
      0.200000E+03      0.000000E+00      0.000000E+00
      0.250000E+01      0.000000E+00      0.000000E+00
      0.500000E+01      0.000000E+00      0.000000E+00
      0.750000E+01      0.000000E+00      0.000000E+00
      0.100000E+02      0.000000E+00      0.000000E+00
      0.125000E+02      0.000000E+00      0.000000E+00
      0.150000E+02      0.000000E+00      0.000000E+00
      0.175000E+02      0.000000E+00      0.000000E+00
      0.200000E+02      0.000000E+00      0.000000E+00
      0.225000E+02      0.000000E+00      0.000000E+00
      0.250000E+02      0.000000E+00      0.000000E+00
      0.275000E+02      0.000000E+00      0.000000E+00
      0.300000E+02      0.000000E+00      0.000000E+00
      0.325000E+02      0.000000E+00      0.000000E+00
      0.350000E+02      0.000000E+00      0.000000E+00
      0.375000E+02      0.000000E+00      0.000000E+00
      0.400000E+02      0.000000E+00      0.000000E+00
      0.425000E+02      0.000000E+00      0.000000E+00
      0.450000E+02      0.000000E+00      0.000000E+00
[...]
CELL_DATA        14782
SCALARS cvs float
LOOKUP_TABLE default
   8.3966335664732205E-010
  -2.0652569748187120E-009
  -1.4166500283440706E-009
   2.1406055469855395E-010
   5.8382309053253833E-010
  -1.4926765233606736E-009
   9.3292738692743261E-010
   3.9901571927947155E-010
   6.8365797430556220E-010
   9.0822731852233379E-010
  -6.4499609967683009E-010
  -5.6584878325197477E-010
  -4.5000690964031547E-010
  -4.4925621094927105E-010
  -3.2116457843232502E-010
  -6.0982667383849483E-010
  -7.2906903718997586E-010
  -2.1813075857921954E-010
   1.5641826450715267E-010
   9.6027961989616596E-010
   7.4767840984063259E-011
   5.1304373412480085E-011
  -1.2221992841814668E-010
   3.6864672146264096E-010
   6.9667882795223961E-010
   1.0849612593055998E-009
   1.0560780317518594E-009
   4.3206395821734628E-010
   7.4104278782055494E-010
   9.8698419514577550E-010
   1.0978299054458154E-009
   1.0641391265416756E-009
   7.6246116605537513E-010
   5.7398319681878538E-010
  -8.3358397545789747E-010
   3.3302101833037915E-010
  -1.5288242310880787E-009
  -1.1445818127858190E-009
  -1.8112541166911039E-009
  -1.4885792004017356E-009
   2.9488536138877520E-010
  -4.2900685947286387E-011
  -4.9801267047766705E-010
  -9.1718145121744750E-010
   6.0084109095603163E-010
   7.2104187023575121E-010
   6.8924135194054370E-010
   2.8984316182822820E-010
   5.1859163723478746E-010
   1.6275381583357867E-011
  -1.3113673981293039E-009
   3.9671167696832552E-010
   1.4621785890682175E-010
   2.1312310466221378E-010
   3.3590272868513211E-010
   1.2717820486955712E-010
   4.7829042177124497E-010
   1.4579191046768032E-010
   4.7904937707890105E-010
   1.9408973928792310E-010
   3.1085899796395612E-010
   3.9013454271376568E-011
  -7.2071264145800639E-010
  -1.5440057747694462E-009
  -3.5360135375063931E-010
  -2.1423231627814884E-009
  -3.1922578788663233E-010
  -2.2500416153429111E-009
  -1.4620650604123182E-010
   5.2940059259541839E-011
  -5.0116459298730067E-010
   2.9013204748193444E-009
  -2.0929355373652308E-009
  -1.5440873926501096E-009
  -9.2337310625587034E-010
  -4.8902315057692819E-010
   8.4039052267074645E-011
   5.3825246760347901E-011
  -1.0947351016428423E-009
  -7.6050255210689281E-010
   4.6204163380500767E-010
   2.0054293065776643E-010
   4.3303873112375874E-010
   2.1075363801935369E-010
  -3.4584940025477945E-010
   1.6204677139453010E-010
  -1.4817776847049283E-009
  -1.2516841623584775E-009
  -1.1889365814274828E-009
  -3.0250611199367900E-010
  -7.4917771621468231E-010
  -1.1538959631498687E-009
   2.9190786319216495E-009
   3.5404689995794394E-010
   5.2979382675796841E-011
  -1.3630205124445023E-009
  -1.0562373498574673E-009
   8.2185320083190474E-010
  -8.7481560918111701E-010
  -5.9457718520509468E-010
  -2.7534202825580112E-011
   5.2964867191528180E-010
   8.7977923250100304E-010
   4.3616631660837746E-010
   3.7138015397056709E-012
   1.2718783400256047E-010
   1.6611584323287772E-009
   5.1908106141216863E-010
  -1.1019844019237141E-009
  -6.6246774931817735E-010
   9.9888633503343708E-010
   5.6025397089765527E-010
   1.6588761837882188E-010
  -2.4780761968865428E-010
  -9.6097652080797982E-010
   7.0121005106121474E-010
  -1.1297725644371614E-009
   4.8394718257869112E-010
  -1.1296012943059338E-009
   9.3488156035572398E-011
  -1.1399841112645242E-009
  -3.0903002291596112E-010
  -1.0723666331030932E-009
  -5.7312246110661782E-010
  -6.3818628171268254E-010
   1.2427433539353060E-009
  -5.6770077983906868E-010
   2.3035424018323929E-009
  -5.1227188490892333E-010
   2.7223477488706883E-009
   2.3406294137585607E-009
  -8.5588249041999752E-010
  -1.0258649384165243E-009
   8.1319586726735803E-011
  -7.5394564698801549E-010
   2.0411177960475480E-010
   1.6714819221181866E-009
   2.9978241050552510E-009
   3.4631562269613940E-009
  -8.0872864106561129E-010
   3.6416143708825823E-009
  -2.0135678746265344E-010
   3.3088009791290247E-010
   1.0461762799586101E-009
   1.5188264723945557E-009
  -4.5419050399385394E-010
   6.5028175011266633E-010
   1.3468264121236147E-010
  -4.9814710554748852E-010
   5.9523667392372654E-011
  -1.6400715559805834E-009
  -2.5846312553267879E-010
  -2.3001011338380521E-010
   6.3718346765914785E-010
   4.3744966468331021E-010
   1.0278401918217870E-009
   2.6675381682960633E-013
   1.0070613494537906E-009
  -5.0191685049732155E-010
  -2.1247196251460015E-010
  -1.0060082952998173E-010
  -7.1953016244777404E-010
   5.9239392659956182E-010
  -5.1505396110080416E-010
   1.2830812579571204E-009
   1.1229076623847213E-009
   2.2065283030812835E-009
   3.4913468648876382E-009
   1.5389260498514871E-009
   9.5202939473271412E-010
   1.6971618675829882E-010
  -3.8462933736983087E-010
  -2.9177725332854620E-010
   6.2000414899134259E-010
   2.0255137290435586E-009
   3.1152442407192012E-009
  -2.1860083854100526E-009
  -5.1943466597274241E-010
  -7.7170216930029793E-011
  -1.3233857719021296E-009
   1.4220349161938650E-009
   9.4260003811017603E-010
  -6.8021016483602114E-010
  -2.4264427920239244E-009
  -1.3849805750263685E-009
   1.9106819482697875E-010
  -1.7760570095243226E-009
  -2.2104726306393701E-009
   1.6455331452413705E-009
  -2.0058471371266708E-009
   1.6855269270632874E-009
  -4.8732190169638729E-010
   1.8966934531007168E-010
   5.8400200226315619E-010
  -6.7674251704825597E-011
   4.5103250331967413E-012
   1.0015110787666723E-009
   1.1256945909793794E-009
   1.5296565362064221E-009
   1.7420488792018615E-009
   1.3768314107931512E-009
   4.2850571699064607E-010
  -4.6609889809759164E-010
  -4.4074569333152439E-010
   3.4418139160842496E-009
   1.2467489827452274E-009
  -4.9092902156717769E-010
  -4.1157395472478842E-010
   4.0370194075330518E-010
   1.0098668099972893E-009
  -2.7894372311626955E-009
   2.3615092086299309E-009
  -4.1662608963603582E-010
   2.9591132349941245E-010
  -2.3284113535273850E-009
  -4.3416240657584592E-009
   2.1331460145761200E-011
  -1.1462993549768834E-009
  -3.9504779166866181E-010
   1.9307792854566263E-010
   2.5342730848381582E-010
   1.1505428378768861E-009
   1.1683465924398837E-009
   1.3902193536240563E-009
   1.6262361822128863E-009
   9.2622543125012481E-010
   1.1804591812287112E-010
  -9.3998629101584189E-010
   4.3459307631483832E-009
   8.6347049001510848E-010
   1.1782996236225266E-009
   2.4722001992467262E-009
   6.5310982290689802E-010
  -3.6276119516560853E-010
   1.9082991880933049E-010
   1.3694656965808681E-009
   1.9683462193624781E-009
   9.8064671353678870E-010
   3.0536507836271955E-009
  -3.6644553191905970E-010
   3.0592530236917008E-009
   2.5993995085007265E-009
   2.1906286947570926E-009
   3.3160843369234207E-009
   8.6423669922163203E-010
   2.8446706299940372E-009
   4.5770675594754696E-010
   2.7042431286614793E-009
   7.3651101664625283E-011
   2.5175862886001486E-009
   2.4811798819484833E-009
   2.4289786209108624E-009
   2.0515621340729088E-009
   3.1285034399127971E-010
  -3.7055391836003742E-010
  -9.4055884393766504E-009
  -1.3753629861542330E-009
  -2.4490637792727516E-010
   2.0092406649524184E-009
  -3.6375970104877202E-009
   3.7173516549380911E-009
   2.4275935506791688E-009
  -5.8363012922533661E-010
  -4.9926555253529090E-010
  -2.2007029358308827E-009
  -8.7735368956846253E-010
   6.7335779790444665E-010
  -5.6376800887367865E-010
  -1.8438183284307538E-009
   3.7032917297189894E-009
  -3.0849940025907733E-009
   2.3360149678922372E-009
   3.7099669543859300E-010
  -2.9453356589717084E-009
  -1.4270201895151621E-009
  -9.7855532291468361E-010
   1.5472114577858960E-009
   3.4591528487792180E-009
   3.8010875570122898E-009
   2.0960600803270919E-010
   7.4079777662915711E-011
  -6.5165756201329955E-009
  -5.9986501990973605E-009
  -2.3613851932026276E-009
  -7.0876952509853913E-009
   5.8004203229356312E-009
   4.7684420612420276E-009
   3.2887560991048976E-009
  -6.3221168283522031E-009
  -7.4101936836255681E-009
   8.1903638016938519E-010
  -5.2662197430205647E-009
  -1.0847728658447702E-009
   6.3471265644911674E-010
  -3.5309002053802808E-009
   2.3783795252076315E-009
  -7.9216903969836151E-009
  -8.7406438165767136E-009
  -7.8867606451326430E-009
  -5.1465457590585654E-009
   1.5419487456413240E-009
   2.0670862990113692E-009
   7.1326336252838581E-009
  -9.1671760817818452E-009
  -1.1850757773119372E-008
  -1.0466858830063866E-008
   6.6217264424798349E-009
   5.1114249682218253E-011
   1.1183186257371737E-009
   6.8415493082286194E-009
  -2.1830560700414742E-009
  -6.4948894948334695E-009
   6.0310774886855376E-009
   5.6736923383761061E-009
   5.3219511517329258E-009
  -3.4975724245054377E-009
   3.9651145447174604E-009
   1.9129952636228454E-009
   5.5920720950589158E-010
  -4.7823031671231343E-009
  -1.0061914563782322E-008
  -1.2219408434730541E-008
  -2.9382801405401561E-009
  -8.6934409101672132E-009
   6.4967302733597966E-009
  -2.4910216471231147E-010
  -1.2731888933844273E-009
   8.4233854716912896E-009
  -7.6636958569010337E-009
  -7.4170517987688106E-009
   1.2106683480572445E-009
  -4.0103294683760257E-009
  -5.1078223792254902E-009
   1.4897246633745703E-009
  -6.7643054475217131E-009
  -2.2907365043395574E-010
   1.0700556755945378E-008
   1.0361845894288736E-008
   5.6504111940338685E-009
  -1.4252256289828969E-009
  -5.8098279522970882E-009
   1.9207249310552788E-010
   1.5883033207996616E-009
   1.1913239811432663E-008
  -7.0180884022970446E-009
  -8.4614770219708223E-009
   1.1489715138070323E-008
  -2.0503012289383322E-010
  -9.6279441762164421E-009
  -1.1393107809920039E-008
  -3.5142285311393284E-009
   6.8366422132112973E-009
   1.2869396693013742E-008
  -1.1646682714292913E-008
   1.0769440904152692E-008
   7.5864236988752497E-009
  -7.6733136325001820E-010
  -7.4618933513764045E-009
   2.0127706777025034E-008
   1.8301677870590532E-008
   1.5192686556967079E-008
   1.8575602928971456E-008
   2.0313987955791344E-008
   2.0434779323141636E-009
   1.3739701352359397E-009
   1.2255639524528744E-010
  -6.4075017917686573E-016
  -8.1853438034751888E-016
  -0.0000000000000000     
  -3.3881808828230956E-010
  -3.4062861511481047E-010
  -2.4647840352201735E-010
   8.0842668457592377E-012
  -8.7822832917600611E-011
  -2.9308120595368375E-010
  -3.4899619892300569E-010
  -2.1676742453284349E-010
  -2.8541127199164911E-010
  -3.8603618861452818E-010
  -1.2226294096885728E-010
  -5.5492592348332125E-011
   5.9576217566398764E-011
   4.0987400087245695E-010
  -2.1043657605984787E-010
  -1.8284209807635515E-010
  -3.5237101555360843E-010
  -3.8641454077938991E-010
  -2.9739024431215884E-010
  -3.1901075784495523E-010
   1.0344522671605685E-010
  -9.7332449182528388E-011
  -9.8906221442710018E-011
  -2.8110472019358211E-010
   5.9470221173826272E-010
  -2.2467166675707414E-010
  -2.9095314514240986E-010
  -2.6056538990735763E-010
  -2.1541351125893664E-010
  -3.1531713397571063E-010
  -3.1890676385046255E-010
  -3.1353572714888662E-010
  -2.9891833602660612E-010
  -2.7337662478346872E-010
  -1.8475033917176708E-010
   9.2153171379050489E-011
  -1.8403437798696866E-010
  -2.3517220368288788E-010
   4.6833852328166778E-011
  -1.5590440286845618E-011
  -8.3496707493892097E-011
  -8.6455499769976302E-011
  -1.5580134531375277E-010
  -3.0197223898353456E-010
  -2.7921191402975908E-010
  -2.5085982884216559E-010
  -3.0971062721414842E-010
  -3.2190733132959236E-010
  -3.3197799733391971E-010
  -3.4154745877857418E-010
  -3.4865130843207762E-010
  -3.6992344927326384E-010
  -2.8497727221565494E-010
  -2.9035732394550824E-010
  -3.1520045343649693E-010
  -1.5906807937489070E-010
  -1.5084166499354617E-010
  -3.9933604672561249E-010
   1.8828891008734110E-010
   1.3305269888924130E-010
   4.7739676024005856E-011
  -3.1879099857808462E-011
  -6.9016316113517140E-011
  -2.2443444853419947E-010
  -1.7134559012467122E-010
   1.7116165951841383E-010
   1.1100931482000269E-010
   5.3777513272958390E-011
   6.7178537859549634E-012
  -2.5982754660456826E-011
  -3.8183554242118855E-011
  -1.0023325010108452E-010
  -1.4969952741194275E-010
  -1.7873600990769440E-010
  -1.7074811477943928E-010
  -2.1708582518420499E-010
  -1.4471916108986265E-010
  -1.1803993577025426E-010
  -1.0185195785177866E-010
  -1.1872650435916204E-010
  -1.0417364477563224E-010
  -1.2675443096879413E-010
  -1.2831613518392033E-010
  -1.1012681921856047E-010
  -7.2034381733308200E-011
  -5.1803105765926404E-010
  -2.7525000781137129E-010
  -2.0942274214420248E-011
  -3.1087372067603989E-010
   3.1058461138554747E-011
  -3.2297503175851184E-010
   7.1833318214779955E-011
  -3.1367500624432400E-010
   9.1331985374227739E-011
  -2.9475902197718971E-010
   8.2960922939393304E-011
  -2.7974134360373970E-010
   4.4756399503042404E-011
  -2.7571607859032109E-010
  -1.9425224748744407E-011
   5.3444582444138319E-011
  -2.8706919694748628E-010
  -1.7726496884722456E-010
  -2.3615710298930603E-010
  -2.6172482344032851E-010
  -2.5175934581040833E-010
   2.7026539944591216E-010
  -2.1877148066566841E-010
   2.0386657291821003E-010
   3.0753630857807369E-010
   2.6405705653971397E-010
  -1.7431004339750048E-009
  -4.3514327619749303E-011
   5.2694379048842200E-010
   2.0775291729306885E-010
   2.1505360545516050E-010
   3.1592582629839902E-010
   3.2212308563360165E-010
   3.0610957629366758E-010
  -2.5745510913321278E-010
  -4.4498086798522160E-011
  -4.0347290284166376E-010
   2.2706918458353334E-010
   2.7323947620785272E-010
   6.0615387938419046E-012
   2.7751633665219612E-011
   5.3586636149893602E-011
   8.3884016929617952E-011
   2.8127301908927793E-010
   1.1624717739584487E-010
   1.2339199822852227E-010
   1.4769349826866348E-010
   2.6304176374939474E-011
   1.7755792488079491E-010
  -4.6617012656035997E-011
   2.3992987294026928E-010
   2.7150953649594499E-010
   2.9316901446142605E-010
   2.9108504402129864E-010
   2.5460932932798583E-010
   1.8545926818665203E-010
   1.0406397264040905E-010
   4.4945413479289390E-011
   4.0008776013083229E-011
   9.9850158646189097E-011
   3.5426490674013991E-010
   4.7197348181068509E-010
   2.3666841043188999E-010
   8.8397842522832891E-011
   2.3727372451151986E-010
   2.4687898063232456E-010
  -1.6113616464936755E-010
   1.8013792059773162E-010
   1.0862938775960035E-010
   8.0529965590184402E-013
  -3.6124479233270415E-010
  -4.1785119410968835E-010
  -4.2168046506983502E-010
  -2.6234161485850867E-011
  -7.2338313632885161E-011
  -1.2300721280997540E-010
  -1.7178749460512733E-010
   7.8505852531616551E-010
  -2.8773518188077841E-010
  -2.9799667156959120E-010
  -1.6596947435299203E-010
  -2.7599548457777013E-010
  -2.4915986288702334E-010
  -2.1408170711538966E-010
  -3.2338086814774209E-010
  -1.1598373426611828E-010
  -3.8831225982296201E-010
  -4.4681441832432308E-010
   1.7983058252782292E-010
  -5.0020731794062202E-010
   2.0317056313234184E-010
  -5.4256592845653814E-010
   1.9152279196123965E-010
  -5.6043612381053391E-010
   1.8275938145191474E-010
  -5.3835168892864166E-010
   2.1743313838855065E-010
  -4.6560785290537734E-010
   3.1023901455255744E-010
  -3.4215830853614866E-010
   4.3600270211517907E-010
  -1.8276186636428680E-010
  -1.7368382648934361E-011
   1.1666823204866762E-010
   1.9368093725367736E-010
   2.1781543658791390E-010
   2.2563217454038076E-010
   2.1224133780879014E-010
   1.5544862535680536E-010
  -2.7309696232729708E-010
  -1.4036610189520052E-010
  -6.0434390199368726E-010
  -6.0838211934780661E-010
   8.6764448662206803E-010
   8.4889710563639767E-010
  -3.0646671478435290E-010
  -3.8608994319090257E-010
  -4.2106564686274918E-010
  -4.0880217718466102E-010
  -4.5401574252442531E-010
  -5.0731190631102883E-010
   6.5351338811507072E-010
  -5.6591541503678461E-010
  -1.9181927210438485E-010
  -1.1129398232880526E-010
  -5.2459889153642941E-010
  -6.1588931116208330E-011
  -3.6049336245375249E-010
  -5.1018333510381885E-011
   7.3367300722337195E-011
  -8.3955530757841298E-011
   2.1573875830657383E-010
   2.6197064723025104E-010
  -3.9176970714776057E-010
  -4.7035136127997741E-010
   2.7645784156488085E-010
  -4.5868746386272145E-010
  -3.3247929347772306E-010
  -1.1911553563063209E-010
   2.4669531974719414E-010
   2.8444802654346890E-010
   1.6484739149807122E-010
   3.3345704377785825E-010
  -1.2762005748665842E-010
  -1.4532827345264275E-010
  -8.6992387739598564E-012
   2.1863763319896034E-010
   5.3551483257029269E-010
  -1.1414704931059864E-010
   1.0995334804705945E-010
   3.4027249344873314E-010
   6.8236110176627054E-010
   2.2964992159925830E-011
   2.9283228509467594E-010
   8.2286132053981536E-010
   5.4611803328527362E-010
   6.9598318298512186E-010
   7.4098181986616807E-010
   4.8701046444194690E-010
   8.7248576572019442E-010
   2.2939529110404790E-010
   9.5978879121393639E-010
   1.0264562217211558E-009
  -1.7494883959376923E-010
   1.0815442055114927E-009
   2.3561559333331746E-011
   1.1114725650886670E-009
   2.0628103063474513E-010
   1.0863832661669131E-009
   2.9380519915293904E-010
   9.7688566705335381E-010
   2.2476131722347743E-010
   7.7259390345058084E-010
   4.9748034335359264E-010
   2.1653424753606792E-010
   2.0554068714160889E-011
  -1.9352868445862400E-011
   3.1648349768591538E-011
   1.2205233467828327E-010
  -4.1685701798545296E-010
   7.3326272555069896E-011
   2.1483965712395274E-010
   9.2427410063292161E-010
   9.6714302432190501E-010
  -5.7258713537452457E-010
  -7.5751115914376674E-010
  -8.6278615666430457E-010
  -9.1591598680163172E-010
  -9.1974278493856557E-010
   7.2062200532380365E-010
   6.5568071718623064E-010
   4.7509806987906653E-010
   6.8793890228140463E-010
   6.0556166394401068E-010
   5.3049274348154974E-010
   5.0694261131413621E-010
   5.9092240498380435E-010
   5.5167926833443674E-010
   5.5409883838659847E-010
   7.8384916403420526E-010
   9.0410363163159023E-010
   4.5364670544570098E-011
  -5.8698084845350973E-011
   7.5084297579537426E-010
  -7.0360062268280923E-011
   4.8056055584014753E-010
   7.2743279816558823E-012
   1.5892594326942426E-010
   9.6503620477802035E-011
   3.6514210216083935E-010
   1.8838645621480356E-010
   1.8683784082471754E-010
   7.9012443037471297E-010
   8.7202658764710878E-010
   7.7956303495239516E-010
   2.2778949422561607E-010
   3.7714622875994709E-011
  -3.8522806556259463E-011
   7.0218037942626438E-011
   7.2829027935581271E-010
   7.2888913114355818E-010
   3.7909357124385936E-010
  -4.2742963058051096E-010
   1.6814384499973524E-010
  -1.2116710739511491E-010
  -6.8496822753548375E-010
  -8.5092031309691430E-010
  -2.9488364474838181E-010
  -5.9066440543764966E-010
  -8.1642676131342724E-010
  -2.8377854994086215E-010
  -9.3585198538608684E-010
   9.2840354352120599E-011
  -9.5812386948458094E-010
   4.7553969307791120E-010
  -9.2967338482196865E-010
  -8.9662761745737975E-010
  -8.6961417407910949E-010
   4.5852980050313380E-010
  -8.1573188388592726E-010
  -1.9463195273308801E-010
  -6.7922915760377669E-010
   3.6560625933933723E-010
   6.3969825130348634E-010
   6.3672733414097847E-010
  -1.1072120160477160E-009
  -1.2992190487300400E-010
   2.2294510891288612E-010
  -2.4716157374213735E-010
   4.4193927149538309E-011
  -4.4095092916067722E-010
  -5.9586831140775909E-010
  -2.5484059475563863E-010
  -1.2677765835158524E-010
  -1.1218026617061860E-010
  -2.0973146580868079E-010
  -3.6971600126013202E-010
  -8.6611005955797314E-011
  -5.7748234324801157E-010
  -4.8935081284481657E-010
   4.4110221599885626E-010
   6.5961971107324582E-011
   3.5335498902580284E-010
   2.7956806638118649E-010
   1.5116711353110094E-010
  -1.0905368819594821E-010
  -3.6546664790192193E-010
  -5.4998208026755153E-010
  -5.9556411665530275E-010
  -4.7014096051947659E-010
  -2.3061962166463723E-010
  -9.7867909384063508E-011
  -1.1004751481491786E-009
  -1.2689257081594181E-009
  -3.8256408542256038E-010
  -8.2789118566128150E-010
  -1.1688001108237092E-009
  -2.3735453762879669E-011
  -5.2672403209902796E-010
  -1.5823273395137973E-009
   1.3452305262816897E-010
  -7.8127063999793359E-010
   1.0860644421490365E-010
  -1.3830376108030391E-010