# vtk DataFile Version 3.1
Mesh with Data
ASCII
DATASET UNSTRUCTURED_GRID
POINTS         7552 float
      0.200000E+03      0.000000E+00      0.200000E+03
      0.000000E+00      0.000000E+00      0.200000E+03
      0.197500E+03      0.000000E+00      0.200000E+03
      0.195000E+03      0.000000E+00      0.200000E+03
      0.192500E+03      0.000000E+00      0.200000E+03
      0.190000E+03      0.000000E+00      0.200000E+03
      0.187500E+03      0.000000E+00      0.200000E+03
      0.185000E+03      0.000000E+00      0.200000E+03
      0.182500E+03      0.000000E+00      0.200000E+03
      0.180000E+03      0.000000E+00      0.200000E+03
      0.177500E+03      0.000000E+00      0.200000E+03
      0.175000E+03      0.000000E+00      0.200000E+03
      0.172500E+03      0.000000E+00      0.200000E+03
      0.170000E+03      0.000000E+00      0.200000E+03
      0.167500E+03      0.000000E+00      0.200000E+03
      0.165000E+03      0.000000E+00      0.200000E+03
      0.162500E+03      0.000000E+00      0.200000E+03
      0.160000E+03      0.000000E+00      0.200000E+03
      0.157500E+03      0.000000E+00      0.200000E+03
      0.155000E+03      0.000000E+00      0.200000E+03
      0.152500E+03      0.000000E+00      0.200000E+03
      0.150000E+03      0.000000E+00      0.200000E+03
      0.147500E+03      0.000000E+00      0.200000E+03
      0.145000E+03      0.000000E+00      0.200000E+03
      0.142500E+03      0.000000E+00      0.200000E+03
      0.140000E+03      0.000000E+00      0.200000E+03
      0.137500E+03      0.000000E+00      0.200000E+03
      0.135000E+03      0.000000E+00      0.200000E+03
      0.132500E+03      0.000000E+00      0.200000E+03
      0.130000E+03      0.000000E+00      0.200000E+03
      0.127500E+03      0.000000E+00      0.200000E+03
      0.125000E+03      0.000000E+00      0.200000E+03
      0.122500E+03      0.000000E+00      0.200000E+03
      0.120000E+03      0.000000E+00      0.200000E+03
      0.117500E+03      0.000000E+00      0.200000E+03
      0.115000E+03      0.000000E+00      0.200000E+03
      0.112500E+03      0.000000E+00      0.200000E+03
      0.110000E+03      0.000000E+00      0.200000E+03
      0.107500E+03      0.000000E+00      0.200000E+03
      0.105000E+03      0.000000E+00      0.200000E+03
      0.102500E+03      0.000000E+00      0.200000E+03
      0.100000E+03      0.000000E+00      0.200000E+03
      0.975000E+02      0.000000E+00      0.200000E+03
      0.950000E+02      0.000000E+00      0.200000E+03
      0.925000E+02      0.000000E+00      0.200000E+03
      0.900000E+02      0.000000E+00      0.200000E+03
      0.875000E+02      0.000000E+00      0.200000E+03
      0.850000E+02      0.000000E+00      0.200000E+03
      0.825000E+02      0.000000E+00      0.200000E+03
      0.800000E+02      0.000000E+00      0.200000E+03
      0.775000E+02      0.000000E+00      0.200000E+03
      0.750000E+02      0.000000E+00      0.200000E+03
      0.725000E+02      0.000000E+00      0.200000E+03
      0.700000E+02      0.000000E+00      0.200000E+03
      0.675000E+02      0.000000E+00      0.200000E+03
      0.650000E+02      0.000000E+00      0.200000E+03
      0.625000E+02      0.000000E+00      0.200000E+03
      0.600000E+02      0.000000E+00      0.200000E+03
      0.575000E+02      0.000000E+00      0.200000E+03
      0.550000E+02      0.000000E+00      0.200000E+03
      0.525000E+02      0.000000E+00      0.200000E+03
      0.500000E+02      0.000000E+00      0.200000E+03
      0.475000E+02      0.000000E+00      0.200000E+03
      0.450000E+02      0.000000E+00      0.200000E+03
      0.425000E+02      0.000000E+00      0.200000E+03
      0.400000E+02      0.000000E+00      0.200000E+03
      0.375000E+02      0.000000E+00      0.200000E+03
      0.350000E+02      0.000000E+00      0.200000E+03
      0.325000E+02      0.000000E+00      0.200000E+03
      0.300000E+02      0.000000E+00      0.200000E+03
      0.275000E+02      0.000000E+00      0.200000E+03
      0.250000E+02      0.000000E+00      0.200000E+03
      0.225000E+02      0.000000E+00      0.200000E+03
      0.200000E+02      0.000000E+00      0.200000E+03
      0.175000E+02      0.000000E+00      0.200000E+03
      0.150000E+02      0.000000E+00      0.200000E+03
      0.125000E+02      0.000000E+00      0.200000E+03
      0.100000E+02      0.000000E+00      0.200000E+03
      0.750000E+01      0.000000E+00      0.200000E+03
      0.500000E+01      0.000000E+00      0.200000E+03
      0.250000E+01      0.000000E+00      0.200000E+03
      0.000000E+00      0.000000E+00      0.000000E+00
      0.000000E+00      0.000000E+00      0.197500E+03
      0.000000E+00      0.000000E+00      0.195000E+03
      0.000000E+00      0.000000E+00      0.192500E+03
      0.000000E+00      0.000000E+00      0.190000E+03
      0.000000E+00      0.000000E+00      0.187500E+03
      0.000000E+00      0.000000E+00      0.185000E+03
      0.000000E+00      0.000000E+00      0.182500E+03
      0.000000E+00      0.000000E+00      0.180000E+03
      0.000000E+00      0.000000E+00      0.177500E+03
      0.000000E+00      0.000000E+00      0.175000E+03
      0.000000E+00      0.000000E+00      0.172500E+03
      0.000000E+00      0.000000E+00      0.170000E+03
      0.000000E+00      0.000000E+00      0.167500E+03
      0.000000E+00      0.000000E+00      0.165000E+03
      0.000000E+00      0.000000E+00      0.162500E+03
      0.000000E+00      0.000000E+00      0.160000E+03
      0.000000E+00      0.000000E+00      0.157500E+03
      0.000000E+00      0.000000E+00      0.155000E+03
      0.000000E+00      0.000000E+00      0.152500E+03
      0.000000E+00      0.000000E+00      0.150000E+03
      0.000000E+00      0.000000E+00      0.147500E+03
      0.000000E+00      0.000000E+00      0.145000E+03
      0.000000E+00      0.000000E+00      0.142500E+03
      0.000000E+00      0.000000E+00      0.140000E+03
      0.000000E+00      0.000000E+00      0.137500E+03
      0.000000E+00      0.000000E+00      0.135000E+03
      0.000000E+00      0.000000E+00      0.132500E+03
      0.000000E+00      0.000000E+00      0.130000E+03
      0.000000E+00      0.000000E+00      0.127500E+03
      0.000000E+00      0.000000E+00      0.125000E+03
      0.000000E+00      0.000000E+00      0.122500E+03
      0.000000E+00      0.000000E+00      0.120000E+03
      0.000000E+00      0.000000E+00      0.117500E+03
      0.000000E+00      0.000000E+00      0.115000E+03
      0.000000E+00      0.000000E+00      0.112500E+03
      0.000000E+00      0.000000E+00      0.110000E+03
      0.000000E+00      0.000000E+00      0.107500E+03
      0.000000E+00      0.000000E+00      0.105000E+03
      0.000000E+00      0.000000E+00      0.102500E+03
      0.000000E+00      0.000000E+00      0.100000E+03
      0.000000E+00      0.000000E+00      0.975000E+02
      0.000000E+00      0.000000E+00      0.950000E+02
      0.000000E+00      0.000000E+00      0.925000E+02
      0.000000E+00      0.000000E+00      0.900000E+02
      0.000000E+00      0.000000E+00      0.875000E+02
      0.000000E+00      0.000000E+00      0.850000E+02
      0.000000E+00      0.000000E+00      0.825000E+02
      0.000000E+00      0.000000E+00      0.800000E+02
      0.000000E+00      0.000000E+00      0.775000E+02
      0.000000E+00      0.000000E+00      0.750000E+02
      0.000000E+00      0.000000E+00      0.725000E+02
      0.000000E+00      0.000000E+00      0.700000E+02
      0.000000E+00      0.000000E+00      0.675000E+02
      0.000000E+00      0.000000E+00      0.650000E+02
      0.000000E+00      0.000000E+00      0.625000E+02
      0.000000E+00      0.000000E+00      0.600000E+02
      0.000000E+00      0.000000E+00      0.575000E+02
      0.000000E+00      0.000000E+00      0.550000E+02
      0.000000E+00      0.000000E+00      0.525000E+02
      0.000000E+00      0.000000E+00      0.500000E+02
      0.000000E+00      0.000000E+00      0.475000E+02
      0.000000E+00      0.000000E+00      0.450000E+02
      0.000000E+00      0.000000E+00      0.425000E+02
      0.000000E+00      0.000000E+00      0.400000E+02
      0.000000E+00      0.000000E+00      0.375000E+02
      0.000000E+00      0.000000E+00      0.350000E+02
      0.000000E+00      0.000000E+00      0.325000E+02
      0.000000E+00      0.000000E+00      0.300000E+02
      0.000000E+00      0.000000E+00      0.275000E+02
      0.000000E+00      0.000000E+00      0.250000E+02
      0.000000E+00      0.000000E+00      0.225000E+02
      0.000000E+00      0.000000E+00      0.200000E+02
      0.000000E+00      0.000000E+00      0.175000E+02
      0.000000E+00      0.000000E+00      0.150000E+02
      0.000000E+00      0.000000E+00      0.125000E+02
      0.000000E+00      0.000000E+00      0.100000E+02
      0.000000E+00      0.000000E+00      0.750000E+01
      0.000000E+00      0.000000E+00      0.500000E+01
      0.000000E+00      0.000000E+00      0.250000E+01
      0.200000E+03      0.000000E+00      0.000000E+00
      0.250000E+01      0.000000E+00      0.000000E+00
      0.500000E+01      0.000000E+00      0.000000E+00
      0.750000E+01      0.000000E+00      0.000000E+00
      0.100000E+02      0.000000E+00      0.000000E+00
      0.125000E+02      0.000000E+00      0.000000E+00
      0.150000E+02      0.000000E+00      0.000000E+00
      0.175000E+02      0.000000E+00      0.000000E+00
      0.200000E+02      0.000000E+00      0.000000E+00
      0.225000E+02      0.000000E+00      0.000000E+00
      0.250000E+02      0.000000E+00      0.000000E+00
      0.275000E+02      0.000000E+00      0.000000E+00
      0.300000E+02      0.000000E+00      0.000000E+00
      0.325000E+02      0.000000E+00      0.000000E+00
      0.350000E+02      0.000000E+00      0.000000E+00
      0.375000E+02      0.000000E+00      0.000000E+00
      0.400000E+02      0.000000E+00      0.000000E+00
      0.425000E+02      0.000000E+00      0.000000E+00
      0.450000E+02      0.000000E+00      0.000000E+00
[...]
CELL_DATA        14782
SCALARS cvs float
LOOKUP_TABLE default
  0.12471148727237624     
 -0.27682682861125885     
 -0.17441830473770098     
   6.2548148804102657E-002
  -7.4766725997183425E-002
 -0.21180655913523377     
   9.6233162617125348E-002
   2.6753879053643091E-002
   6.5138296807685375E-002
   9.2616773970552874E-002
  -9.1230576173976008E-002
  -9.3345538848998419E-002
  -6.9844563953201391E-002
  -5.6608183207894631E-002
  -3.0526008359015699E-002
 -0.26844184384296738     
 -0.11099290425430994     
   3.4798338923715005E-002
   2.2275507980092410E-002
  0.10611745426909595     
   1.7584528340803089E-002
   6.9949749393029226E-002
  -1.2049852403782532E-002
   5.1276206869094773E-002
   8.3306069676182287E-002
  0.11497346095165766     
  0.10971848769436475     
   5.3452197743460751E-002
   8.3300426454438470E-002
  0.10441803793942696     
  0.11276557505122711     
  0.10898903548519134     
   7.6606068773062710E-002
   4.8894439397823439E-002
   1.2357796549025940E-002
   9.0610688858526571E-003
 -0.10204872909572910     
  -2.9836581668130073E-002
 -0.16672714270084996     
 -0.18101315153998765     
  0.10997471905007265     
   6.7375963965917537E-002
   3.4779033424074540E-003
  -5.3394251286136660E-002
   8.6099227149550581E-002
   9.3455951507449272E-002
   8.8434645988702432E-002
   4.0702343501265469E-002
   6.9416360133321448E-002
   3.9319701938263958E-002
  0.10260311390953313     
   7.2541957391030976E-002
   3.4342318804909788E-002
   5.9351055313464227E-002
   6.4870106010059381E-002
   4.9717223627847390E-002
   8.3897536519128166E-002
   4.1772232419203630E-002
   8.6156086061592058E-002
   2.8502777089520290E-002
   7.3385933525215885E-002
   5.3237113313365857E-002
  -7.9907241104770585E-002
 -0.22562894635007594     
   2.4429996752460399E-002
 -0.27846973579881695     
   2.3886567804243142E-002
 -0.25750782453910714     
   3.0111805255187349E-002
   3.4308916120127951E-002
  0.14217280044781455     
  0.26977899529388938     
 -0.25688638455886748     
 -0.15561027361532609     
 -0.16369491573260464     
  -8.6865141704171894E-002
   7.1248274453550420E-002
   1.6626225492624894E-002
  -8.0981020277631002E-002
  -4.8190301063458625E-002
   3.9138672558707330E-002
   8.3590191072266201E-002
  -2.5739782291519242E-002
   7.2116776396509902E-002
  -4.7078248710087679E-003
   8.5544291881526055E-002
 -0.19599285557615437     
  -9.5933876974390458E-002
  -8.7738827562845470E-002
  -4.0894291932542105E-002
  -9.7924335250137121E-002
 -0.14469336002319588     
  0.11458426411113501     
   9.9818175389921354E-002
   2.4403570026323040E-002
 -0.15809267772611874     
 -0.10147666539805171     
  0.38892009779857512     
 -0.13991765940480794     
  -1.4708007790255637E-002
   8.4848231257276599E-002
  0.16413082601694018     
  0.18394891679960451     
   1.6193305845572541E-002
  -6.2465565582940905E-002
   8.0719914415565835E-002
  0.18009258734908162     
 -0.14437712924079968     
 -0.27769127393719412     
 -0.21256409589890099     
  -6.0874379094517095E-002
  -7.5815745203919066E-002
  -9.5486489171343308E-002
 -0.15974540693702355     
 -0.25218585437183061     
  -3.8859781102849607E-002
 -0.28811438539918466     
 -0.10377916044765997     
 -0.28150634972453636     
 -0.15783220233662185     
 -0.25217156556533715     
 -0.19843372377211393     
 -0.18885214622701865     
 -0.22587117630755593     
 -0.24176901269627188     
  0.22882347864668282     
 -0.25056947426146886     
  0.32792527508061875     
 -0.25866870319029378     
  0.31686718053483498     
  0.21626486872897638     
 -0.26968257490590969     
 -0.23676846632225282     
  0.52926682081825316     
 -0.13943790512079907     
   3.0308941862277613E-002
  0.23001530496055694     
  0.37081570036549161     
  0.37774159087427284     
  0.12494596221375950     
  0.35618466769563351     
 -0.27490360139563896     
 -0.21464878636322077     
  -4.0803983493090806E-002
  0.14950496118561296     
   2.7177712900043664E-002
   2.1710887378702925E-002
  -3.9051158181528829E-003
  0.10424050149289621     
  -7.6999506588245795E-002
  0.11825500881956470     
  -6.5125769176134399E-002
  -3.8682878026703130E-002
  -1.0198916864553403E-002
  0.38028310625058781     
   1.4811981361416426E-002
   3.8945392225445377E-003
  -4.1774554730242011E-002
   6.6639557176463707E-002
 -0.25785996716848925     
  0.12173048875525971     
 -0.31888122855960099     
  0.17703191873638571     
 -0.26342376261114597     
  0.20552960615275756     
  0.32954831277008950     
  0.17760010534275450     
  0.35648699823573055     
   8.6725787604277418E-002
  -6.3125757980904099E-002
 -0.22554668691997465     
 -0.32876385597221186     
 -0.30109652901193146     
 -0.12310215039022826     
  0.12803489775778015     
  0.30082702239995496     
 -0.36616548262516235     
  0.33591989751789619     
   4.5209835229005443E-002
  0.13043878377823673     
  0.39739442706109657     
  0.37464132535702305     
  0.23842028755799194     
 -0.23451137506272757     
  0.16531087027500019     
  0.31614225138749596     
   7.1366936830070837E-002
   5.1643782405161348E-002
  0.37379817157456197     
   7.2319537763448988E-002
  0.29341049239780692     
  0.20520434466746390     
  0.27660177603864661     
  0.33754172814635974     
  0.34031748454047572     
 -0.16174193311752733     
   6.0430707459115190E-002
  0.42193429965233142     
  0.40628686839103567     
  0.30345657379279967     
  0.10791222044328648     
 -0.11197066923338056     
 -0.22556943537440000     
 -0.13851972397422874     
  0.84897565047920054     
   3.0495974832319736E-002
  0.15711588830112241     
  0.17637776452201331     
  -1.5579738706178622E-002
 -0.25585666372580507     
 -0.20931847627477182     
 -0.12599473536260458     
 -0.13065939362500911     
  -6.9952471395954452E-002
 -0.39461380554950953     
 -0.26098047891905896     
   5.7401905257292066E-002
 -0.34033576257376985     
  0.34346519822198213     
 -0.25527389555415902     
  0.51746582722010570     
 -0.18526471326797891     
  0.61656925676752572     
 -0.13900545702257733     
  0.55787039601784660     
  -9.0098774664077619E-002
  -3.0928859419060376E-003
  -9.8329590598794578E-002
  0.76619558595123538     
  0.63809179797624305     
  0.57997456968685568     
 -0.35354157006938447     
  0.34871832605622016     
   7.3446280817051013E-002
  0.30507479597983128     
   7.2299105309217918E-002
   2.7460361391163174E-002
  0.45124392525035001     
  -6.1455806501102050E-002
  0.29387945926840164     
  -3.4779001635404455E-002
  -9.6249677530699240E-003
   2.8411833530253061E-002
  0.52848496755801166     
  0.12690313562815742     
   9.9192404716724289E-002
  0.20486562061855143     
  0.12097421534909154     
  0.37864826556801345     
  0.13096493757415961     
  0.12560607055374190     
   9.0576928394176581E-002
   4.4058711733123007E-002
   7.8086103959200889E-002
  0.14493533502154707     
 -0.27484556623918971     
 -0.10294422824094759     
 -0.15465532189544393     
  -9.0274798021444558E-002
   4.6588342167043717E-002
 -0.10807865713299208     
   1.4818450208031353E-002
  0.17532832217736541     
  0.13593252608960441     
  -6.9471551596996320E-002
  0.22874109498315895     
  0.10936290051550548     
  0.44749295783536402     
  0.28731680121587411     
 -0.23421263637238837     
  0.15420685366350909     
 -0.31043174730362233     
 -0.29836332361678436     
  -4.3185307180043986E-002
 -0.25568329474080986     
 -0.11355085175701002     
 -0.16908829001888542     
 -0.22821546453848196     
 -0.29971771126711616     
 -0.35624572024947299     
   5.3508925588902044E-003
 -0.70447395975000504     
 -0.73851851293657589     
 -0.44607266407059443     
 -0.71419483519673632     
 -0.31203156417606648     
 -0.26728827334188915     
 -0.31207984159234325     
 -0.46327705390655433     
 -0.63931457996887686     
 -0.17791153283955341     
 -0.64034524109274404     
 -0.32655380234569026     
 -0.23219424708222292     
 -0.51555251011634096     
 -0.10491530044251232     
 -0.91732820584299590     
 -0.95494124706665340     
 -0.79397285984558752     
 -0.46505645347405922     
  0.13098082424413884     
  0.17950729504842150     
   1.0325183084098657     
 -0.34490388358247259     
 -0.82943315566951303     
  -1.0130827709999877     
 -0.30662645076180911     
  0.27690334163468111     
 -0.46029441678849448     
  0.72573572676307851     
 -0.68640299494116408     
 -0.91621237315979331     
 -0.14010351967671519     
  -3.2619198174963060E-002
  -1.5624944996973977E-002
  0.24176769122912695     
 -0.12332446028461036     
  0.64966361029203124     
 -0.37407641539878406     
 -0.70212925858783315     
 -0.91521299779403109     
 -0.78823974836410560     
  0.38222696432299896     
 -0.66444521759656450     
  0.43744074772184660     
 -0.10673893372239927     
   6.4812820975175198E-002
  0.72682705620548471     
  -4.6817391848287038E-002
   8.0117319571061385E-002
  -8.0303185564020566E-002
  0.34538745093709833     
 -0.56029043250914279     
  0.70688758880484326     
 -0.27685179796141846     
  0.34570725210746306     
   1.1478946628266273     
  0.90237049947240699     
  0.30199811728062254     
 -0.37662365347014209     
 -0.47328765243723664     
   8.6815520460918116E-002
 -0.38357650447085767     
  0.85558975154630179     
  -1.2109146048062387     
  -1.2260159809395119     
  0.84272473355130262     
 -0.62728576145671167     
  -1.5570900876753839     
  -1.5524036615304704     
 -0.81007376899305927     
  0.49994306553095846     
   1.6570037347794604     
  -1.4656017502493617     
   1.4632050115650914     
  0.66268011572812813     
 -0.32592814032664080     
 -0.78145554200996714     
   2.0257047825834293     
   2.0335813818376587     
   1.4630115590992969     
   1.9075661002631477     
   1.9752197462479124     
  0.18873233204743098     
  0.11476547947614696     
   1.0588812787372563E-002
  -5.2754262306621144E-008
  -9.0333406656373199E-008
  -0.0000000000000000     
  -6.0802826345069665E-002
  -3.8893454739044993E-002
  -2.9482185547568384E-002
   2.3628311233243760E-003
  -1.7745564043992169E-002
  -3.3768601406921693E-002
  -6.4985025386368939E-002
  -2.8430766843912304E-002
  -2.6145741657412156E-002
  -6.4139780743126332E-002
  -2.3154211052474429E-002
  -9.9420194060068287E-003
   1.2429705916611574E-002
   5.2836821180466731E-002
  -3.1358570876842878E-002
  -3.2333376437512176E-002
  -4.5181800414186443E-002
  -4.9706118937906510E-002
  -4.7653500065078722E-002
  -5.4540823211774864E-002
   2.3842719007661717E-002
  -5.8645771166826899E-002
  -1.2232800883925627E-002
  -4.5480499712828797E-002
   8.5462164144684716E-002
  -3.7510203833152747E-002
  -5.8649830354452842E-002
  -5.1751700693170491E-002
  -4.2006474573495274E-002
  -6.3140234114702432E-002
  -6.4795636725806988E-002
  -6.4140922797950486E-002
  -6.1069710063171537E-002
  -5.5345931355742381E-002
  -3.8344338136529009E-002
   1.9225206924365450E-002
  -3.5862357101561826E-002
  -4.6854164213081501E-002
   9.8435938210350241E-003
  -2.4102258303439206E-003
  -2.9343046153197251E-002
  -1.6134773236973786E-002
  -2.9790871576868595E-002
  -5.9138667661050991E-002
  -5.2938111519671122E-002
  -4.5272149570746614E-002
  -6.2977878913726568E-002
  -6.5417146611841032E-002
  -6.6712144694036163E-002
  -6.7279632541076606E-002
  -6.6925248785485572E-002
  -4.1880882169385278E-002
  -4.2165758554868732E-002
  -3.9768793258750545E-002
  -4.1065082286394883E-002
  -3.1022483207164248E-002
  -3.2974338585959155E-002
  -5.1645703306503095E-002
   1.1414442556195059E-002
   6.7193444112394456E-003
  -3.0608983307417225E-003
  -1.2080373019734809E-002
  -1.4153795917425049E-002
  -3.7713329601351743E-002
  -2.9707224151157917E-002
   2.1259302934972003E-002
   9.2690477475697829E-003
  -6.2209606982318796E-004
  -7.4925423806766608E-003
  -1.1371712228989037E-002
  -7.2911449052231233E-003
  -1.9505740673178368E-002
  -2.9490826902995107E-002
  -3.5977652454977527E-002
  -3.6833390269890048E-002
  -4.6406191142008210E-002
  -3.2522531435524714E-002
  -2.7198423829502778E-002
  -2.2917990996767626E-002
  -2.4402604463713826E-002
  -2.1450713390270069E-002
  -2.7155918061844295E-002
  -2.3792267131352410E-002
  -2.5510248181680770E-002
  -1.9689546012608999E-002
  -4.1833694549729801E-002
  -4.5550029490748559E-002
  -1.0727727616649495E-002
  -5.0777017303656420E-002
  -5.0685191893819724E-004
  -5.1827822477096538E-002
   8.6984623874244472E-003
  -4.9225529866442325E-002
   1.4699264398068519E-002
  -4.5319207794120131E-002
   1.5782837590600209E-002
  -4.2732302339715526E-002
   1.1138882202367775E-002
  -4.2865421562099118E-002
   1.1885251628051452E-003
   3.4935605482209767E-002
  -4.8915541720005229E-002
  -2.6065693597857993E-002
  -3.6827258379026923E-002
  -4.1895696762369108E-002
  -4.0960898728343811E-002
   5.7616238963371036E-002
  -3.6530648792117572E-002
   1.8003158582674345E-002
   3.0695961696133516E-002
   3.6827977851645544E-002
 -0.17489258802696730     
   8.4327893822577230E-002
   3.0912366136926425E-002
   3.6357194682371086E-002
   4.6556897173772517E-002
   6.3087042628487397E-002
   6.1652161940794606E-002
   5.5384534503547571E-002
  -4.8648738831995511E-002
  -1.2910251388562530E-002
  -4.5064838390586157E-002
   3.3915627202408739E-002
   4.5727893855690371E-002
  -7.2494275566722284E-003
  -5.7773363410628309E-003
  -3.0823222915506449E-003
   1.8545121817264698E-003
   5.8268333635733832E-002
   9.0057637888420992E-003
   2.9118477719476454E-002
   1.7603271953391359E-002
   9.6836988719050977E-003
   2.6855416610858572E-002
  -6.3383042378322933E-003
   4.5805696874703788E-002
   5.4292088650703368E-002
   5.9954326697435292E-002
   6.0322138151099679E-002
   5.3457998173133632E-002
   3.9519915783687576E-002
   2.2044821935961544E-002
   7.2553253434755119E-003
   1.0557756365161338E-003
   5.7063969709345626E-003
   4.7158772889505422E-002
   6.4554405559498818E-002
   2.6942847841453767E-002
  -1.2014144534377831E-002
   4.3031068976148383E-002
   4.7451596168019257E-002
  -1.7417486267458482E-002
   3.9101807180756697E-002
   2.6318012136778354E-002
   6.6019987588542906E-003
  -4.9465754386675907E-002
  -4.7241093916554809E-002
  -6.0197000922871911E-002
  -1.8642260170762030E-002
  -2.8419048188633375E-002
  -3.6943172251738654E-002
  -4.2810102369676743E-002
  0.15703366141979239     
  -4.9694215904274239E-002
  -4.8537092574046523E-002
  -4.4587162570268027E-002
  -4.3220662161878365E-002
  -5.7477250900097199E-002
  -3.1911113183584847E-002
  -6.6244928205938858E-002
  -1.4460681494784286E-002
  -7.1871465166583659E-002
  -7.6358518233025252E-002
   3.4328993146616735E-002
  -8.1265216070609492E-002
   4.1712625661724810E-002
  -8.6483038343533214E-002
   3.5848584653690667E-002
  -8.9757359674241324E-002
   2.8390137769511339E-002
  -8.7546918016474934E-002
   2.7550059263751273E-002
  -7.6664099830956789E-002
   3.7264182661344979E-002
  -5.5890671391352550E-002
   5.4200949960363107E-002
  -2.7308290426415575E-002
   3.2727597347946068E-003
   2.7922124006989790E-002
   4.0610345498795074E-002
   4.1214086002961441E-002
   3.6673076916961034E-002
   4.7635886861853841E-002
   3.8333142508945484E-002
  -4.5288987585708339E-002
  -2.0468389463573503E-002
 -0.10695292796263395     
 -0.10382156578709026     
  0.15046016607618912     
  0.15737707100357856     
  -6.3295108617833218E-002
  -7.1433729356325040E-002
  -6.9133914232340415E-002
  -5.0400844613831930E-002
  -5.7096105728523555E-002
  -7.2661203151819079E-002
   7.7261784665914601E-002
  -9.0119415544815173E-002
  -2.3134958504428902E-003
   1.5081284443519423E-002
  -9.3680334058842712E-002
   2.2430851064407599E-002
  -6.2760879373289835E-002
   1.8917458498606245E-002
   2.0322175087703689E-002
   5.1042677662120834E-003
   4.6519359121993016E-002
   5.3196973132420146E-002
  -7.2196570648135783E-002
  -8.9019755972507719E-002
   4.9310418137747919E-002
  -8.6756763625275318E-002
  -6.1685686323243435E-002
  -1.9746282942461696E-002
   5.2159345753769806E-002
   5.2116431687337941E-002
   4.7907018259365969E-002
   2.6672452794656670E-002
  -4.2718787555482834E-002
  -4.7955391900297677E-002
  -2.4012356830457486E-002
   1.1942955917685849E-002
  0.13028398854288567     
   7.6906223673191727E-003
   5.5047365272202331E-002
   9.8527694620151818E-002
  0.14893032578752943     
   3.5060842843258798E-002
   8.7483482773355090E-002
  0.13420158175433863     
  0.13094725821802011     
  0.10601837161598854     
  0.15835657966867542     
   6.5845241498349291E-002
  0.17080073601350762     
   1.8761049716973698E-002
  0.17399282999613586     
  0.17399892307849141     
  -5.5918107982279877E-002
  0.17375516222698784     
  -1.0735420842071507E-002
  0.17177301197366585     
   3.0256222655121928E-002
  0.16326489061215135     
   5.6581678247097839E-002
  0.14250506835540100     
   5.5419367440914122E-002
  0.10609795439908137     
   5.6628016607897791E-002
   4.9924833584779702E-003
  -3.1510773327051995E-002
  -3.7579550522058282E-002
  -5.1353420347707339E-002
  -1.0625672481251552E-002
  -2.5435826663097426E-002
  -4.9803472563543096E-002
  -2.4867941298105021E-002
  0.12691692085096712     
  0.13788592902737679     
  -7.1185827408293739E-002
 -0.10718696883281253     
 -0.13130529525188561     
 -0.14653025134745423     
 -0.15345073225021483     
  0.13085699100492537     
  0.13254308988625030     
  0.10984186676640843     
  0.11164110848779112     
   8.5877967577426495E-002
   6.4373122966628019E-002
   5.4638346759752141E-002
  0.11046429939789992     
   5.9539792888823981E-002
   8.9955365119699301E-002
  0.10224448472085132     
  0.12604804631051425     
  -2.1676485983557071E-002
  -4.0676196889484019E-002
   8.8250959550872768E-002
  -4.1915088510296739E-002
   3.0071899471526407E-002
  -2.5982861645104115E-002
   4.2131335825097427E-003
  -3.4047578161150172E-002
   4.3986740971965407E-002
   4.3810445985134755E-003
   3.0929187201767065E-002
  0.11612310850919938     
  0.12094688954155669     
   9.0428153129119865E-002
  -3.1761448445983956E-002
  -6.4465269710040601E-002
   2.9729743686314751E-002
  -4.9862603236565869E-002
   9.2074696044076698E-002
  0.11277844641376870     
   5.5513202930842623E-002
  -9.4096645678504801E-002
   9.5677836552089876E-003
  -4.4825642345769190E-002
 -0.12992546078669082     
 -0.14925744679383138     
  -7.1515566535962874E-002
 -0.11305770515766939     
 -0.13826590614513462     
  -2.1770449262631796E-002
 -0.14649927734564749     
   3.6151654023793944E-002
 -0.14195632646060641     
   8.8154610382496001E-002
 -0.13172619562884177     
 -0.12111289241785919     
 -0.11039941166742373     
   2.7737798887593410E-002
  -9.4873878971868580E-002
  -9.5579702023593727E-002
  -6.7946562555369711E-002
   8.3641285535315843E-002
  0.11266819677157117     
   9.4358847296753243E-002
 -0.17235636351501832     
   1.3542582999004970E-002
   8.8052534747165651E-002
   1.3255172574499461E-002
  -2.2650975621991875E-002
  -4.6747068265233740E-002
  -7.3583779547821179E-002
  -2.0407988966705391E-002
  -3.6413258521359650E-003
  -7.8481774107539998E-004
  -1.0312856654039311E-002
  -2.6671495482237951E-002
   2.6230924226926236E-003
  -4.5682767685828518E-002
  -2.8362103783725785E-002
   6.0833410036231599E-002
   6.6920175408831675E-002
   5.0233395490666410E-002
  0.10290234714861118     
   2.7072317718676769E-002
  -3.5391477802324527E-003
  -3.4276273654099243E-002
  -5.3988024894714881E-002
  -4.9430993733163564E-002
  -1.3574313303756538E-002
   4.2335513730777548E-002
   7.2524436400585451E-002
  -4.7754698746348544E-002
 -0.11318653822263429     
  -7.7824069178100849E-002
 -0.12448509671138035     
 -0.14156255311285199     
  -4.5922973772032027E-002
 -0.11191149472341193     
 -0.20062046991151911     
  -6.8695703736157757E-004
 -0.13765911596214997     
   2.1265723764495450E-002
  -2.5637377389534234E-002