# vtk DataFile Version 3.1
Mesh with Data
ASCII
DATASET UNSTRUCTURED_GRID
POINTS         7552 float
      0.200000E+03      0.000000E+00      0.200000E+03
      0.000000E+00      0.000000E+00      0.200000E+03
      0.197500E+03      0.000000E+00      0.200000E+03
      0.195000E+03      0.000000E+00      0.200000E+03
      0.192500E+03      0.000000E+00      0.200000E+03
      0.190000E+03      0.000000E+00      0.200000E+03
      0.187500E+03      0.000000E+00      0.200000E+03
      0.185000E+03      0.000000E+00      0.200000E+03
      0.182500E+03      0.000000E+00      0.200000E+03
      0.180000E+03      0.000000E+00      0.200000E+03
      0.177500E+03      0.000000E+00      0.200000E+03
      0.175000E+03      0.000000E+00      0.200000E+03
      0.172500E+03      0.000000E+00      0.200000E+03
      0.170000E+03      0.000000E+00      0.200000E+03
      0.167500E+03      0.000000E+00      0.200000E+03
      0.165000E+03      0.000000E+00      0.200000E+03
      0.162500E+03      0.000000E+00      0.200000E+03
      0.160000E+03      0.000000E+00      0.200000E+03
      0.157500E+03      0.000000E+00      0.200000E+03
      0.155000E+03      0.000000E+00      0.200000E+03
      0.152500E+03      0.000000E+00      0.200000E+03
      0.150000E+03      0.000000E+00      0.200000E+03
      0.147500E+03      0.000000E+00      0.200000E+03
      0.145000E+03      0.000000E+00      0.200000E+03
      0.142500E+03      0.000000E+00      0.200000E+03
      0.140000E+03      0.000000E+00      0.200000E+03
      0.137500E+03      0.000000E+00      0.200000E+03
      0.135000E+03      0.000000E+00      0.200000E+03
      0.132500E+03      0.000000E+00      0.200000E+03
      0.130000E+03      0.000000E+00      0.200000E+03
      0.127500E+03      0.000000E+00      0.200000E+03
      0.125000E+03      0.000000E+00      0.200000E+03
      0.122500E+03      0.000000E+00      0.200000E+03
      0.120000E+03      0.000000E+00      0.200000E+03
      0.117500E+03      0.000000E+00      0.200000E+03
      0.115000E+03      0.000000E+00      0.200000E+03
      0.112500E+03      0.000000E+00      0.200000E+03
      0.110000E+03      0.000000E+00      0.200000E+03
      0.107500E+03      0.000000E+00      0.200000E+03
      0.105000E+03      0.000000E+00      0.200000E+03
      0.102500E+03      0.000000E+00      0.200000E+03
      0.100000E+03      0.000000E+00      0.200000E+03
      0.975000E+02      0.000000E+00      0.200000E+03
      0.950000E+02      0.000000E+00      0.200000E+03
      0.925000E+02      0.000000E+00      0.200000E+03
      0.900000E+02      0.000000E+00      0.200000E+03
      0.875000E+02      0.000000E+00      0.200000E+03
      0.850000E+02      0.000000E+00      0.200000E+03
      0.825000E+02      0.000000E+00      0.200000E+03
      0.800000E+02      0.000000E+00      0.200000E+03
      0.775000E+02      0.000000E+00      0.200000E+03
      0.750000E+02      0.000000E+00      0.200000E+03
      0.725000E+02      0.000000E+00      0.200000E+03
      0.700000E+02      0.000000E+00      0.200000E+03
      0.675000E+02      0.000000E+00      0.200000E+03
      0.650000E+02      0.000000E+00      0.200000E+03
      0.625000E+02      0.000000E+00      0.200000E+03
      0.600000E+02      0.000000E+00      0.200000E+03
      0.575000E+02      0.000000E+00      0.200000E+03
      0.550000E+02      0.000000E+00      0.200000E+03
      0.525000E+02      0.000000E+00      0.200000E+03
      0.500000E+02      0.000000E+00      0.200000E+03
      0.475000E+02      0.000000E+00      0.200000E+03
      0.450000E+02      0.000000E+00      0.200000E+03
      0.425000E+02      0.000000E+00      0.200000E+03
      0.400000E+02      0.000000E+00      0.200000E+03
      0.375000E+02      0.000000E+00      0.200000E+03
      0.350000E+02      0.000000E+00      0.200000E+03
      0.325000E+02      0.000000E+00      0.200000E+03
      0.300000E+02      0.000000E+00      0.200000E+03
      0.275000E+02      0.000000E+00      0.200000E+03
      0.250000E+02      0.000000E+00      0.200000E+03
      0.225000E+02      0.000000E+00      0.200000E+03
      0.200000E+02      0.000000E+00      0.200000E+03
      0.175000E+02      0.000000E+00      0.200000E+03
      0.150000E+02      0.000000E+00      0.200000E+03
      0.125000E+02      0.000000E+00      0.200000E+03
      0.100000E+02      0.000000E+00      0.200000E+03
      0.750000E+01      0.000000E+00      0.200000E+03
      0.500000E+01      0.000000E+00      0.200000E+03
      0.250000E+01      0.000000E+00      0.200000E+03
      0.000000E+00      0.000000E+00      0.000000E+00
      0.000000E+00      0.000000E+00      0.197500E+03
      0.000000E+00      0.000000E+00      0.195000E+03
      0.000000E+00      0.000000E+00      0.192500E+03
      0.000000E+00      0.000000E+00      0.190000E+03
      0.000000E+00      0.000000E+00      0.187500E+03
      0.000000E+00      0.000000E+00      0.185000E+03
      0.000000E+00      0.000000E+00      0.182500E+03
      0.000000E+00      0.000000E+00      0.180000E+03
      0.000000E+00      0.000000E+00      0.177500E+03
      0.000000E+00      0.000000E+00      0.175000E+03
      0.000000E+00      0.000000E+00      0.172500E+03
      0.000000E+00      0.000000E+00      0.170000E+03
      0.000000E+00      0.000000E+00      0.167500E+03
      0.000000E+00      0.000000E+00      0.165000E+03
      0.000000E+00      0.000000E+00      0.162500E+03
      0.000000E+00      0.000000E+00      0.160000E+03
      0.000000E+00      0.000000E+00      0.157500E+03
      0.000000E+00      0.000000E+00      0.155000E+03
      0.000000E+00      0.000000E+00      0.152500E+03
      0.000000E+00      0.000000E+00      0.150000E+03
      0.000000E+00      0.000000E+00      0.147500E+03
      0.000000E+00      0.000000E+00      0.145000E+03
      0.000000E+00      0.000000E+00      0.142500E+03
      0.000000E+00      0.000000E+00      0.140000E+03
      0.000000E+00      0.000000E+00      0.137500E+03
      0.000000E+00      0.000000E+00      0.135000E+03
      0.000000E+00      0.000000E+00      0.132500E+03
      0.000000E+00      0.000000E+00      0.130000E+03
      0.000000E+00      0.000000E+00      0.127500E+03
      0.000000E+00      0.000000E+00      0.125000E+03
      0.000000E+00      0.000000E+00      0.122500E+03
      0.000000E+00      0.000000E+00      0.120000E+03
      0.000000E+00      0.000000E+00      0.117500E+03
      0.000000E+00      0.000000E+00      0.115000E+03
      0.000000E+00      0.000000E+00      0.112500E+03
      0.000000E+00      0.000000E+00      0.110000E+03
      0.000000E+00      0.000000E+00      0.107500E+03
      0.000000E+00      0.000000E+00      0.105000E+03
      0.000000E+00      0.000000E+00      0.102500E+03
      0.000000E+00      0.000000E+00      0.100000E+03
      0.000000E+00      0.000000E+00      0.975000E+02
      0.000000E+00      0.000000E+00      0.950000E+02
      0.000000E+00      0.000000E+00      0.925000E+02
      0.000000E+00      0.000000E+00      0.900000E+02
      0.000000E+00      0.000000E+00      0.875000E+02
      0.000000E+00      0.000000E+00      0.850000E+02
      0.000000E+00      0.000000E+00      0.825000E+02
      0.000000E+00      0.000000E+00      0.800000E+02
      0.000000E+00      0.000000E+00      0.775000E+02
      0.000000E+00      0.000000E+00      0.750000E+02
      0.000000E+00      0.000000E+00      0.725000E+02
      0.000000E+00      0.000000E+00      0.700000E+02
      0.000000E+00      0.000000E+00      0.675000E+02
      0.000000E+00      0.000000E+00      0.650000E+02
      0.000000E+00      0.000000E+00      0.625000E+02
      0.000000E+00      0.000000E+00      0.600000E+02
      0.000000E+00      0.000000E+00      0.575000E+02
      0.000000E+00      0.000000E+00      0.550000E+02
      0.000000E+00      0.000000E+00      0.525000E+02
      0.000000E+00      0.000000E+00      0.500000E+02
      0.000000E+00      0.000000E+00      0.475000E+02
      0.000000E+00      0.000000E+00      0.450000E+02
      0.000000E+00      0.000000E+00      0.425000E+02
      0.000000E+00      0.000000E+00      0.400000E+02
      0.000000E+00      0.000000E+00      0.375000E+02
      0.000000E+00      0.000000E+00      0.350000E+02
      0.000000E+00      0.000000E+00      0.325000E+02
      0.000000E+00      0.000000E+00      0.300000E+02
      0.000000E+00      0.000000E+00      0.275000E+02
      0.000000E+00      0.000000E+00      0.250000E+02
      0.000000E+00      0.000000E+00      0.225000E+02
      0.000000E+00      0.000000E+00      0.200000E+02
      0.000000E+00      0.000000E+00      0.175000E+02
      0.000000E+00      0.000000E+00      0.150000E+02
      0.000000E+00      0.000000E+00      0.125000E+02
      0.000000E+00      0.000000E+00      0.100000E+02
      0.000000E+00      0.000000E+00      0.750000E+01
      0.000000E+00      0.000000E+00      0.500000E+01
      0.000000E+00      0.000000E+00      0.250000E+01
      0.200000E+03      0.000000E+00      0.000000E+00
      0.250000E+01      0.000000E+00      0.000000E+00
      0.500000E+01      0.000000E+00      0.000000E+00
      0.750000E+01      0.000000E+00      0.000000E+00
      0.100000E+02      0.000000E+00      0.000000E+00
      0.125000E+02      0.000000E+00      0.000000E+00
      0.150000E+02      0.000000E+00      0.000000E+00
      0.175000E+02      0.000000E+00      0.000000E+00
      0.200000E+02      0.000000E+00      0.000000E+00
      0.225000E+02      0.000000E+00      0.000000E+00
      0.250000E+02      0.000000E+00      0.000000E+00
      0.275000E+02      0.000000E+00      0.000000E+00
      0.300000E+02      0.000000E+00      0.000000E+00
      0.325000E+02      0.000000E+00      0.000000E+00
      0.350000E+02      0.000000E+00      0.000000E+00
      0.375000E+02      0.000000E+00      0.000000E+00
      0.400000E+02      0.000000E+00      0.000000E+00
      0.425000E+02      0.000000E+00      0.000000E+00
      0.450000E+02      0.000000E+00      0.000000E+00
[...]
CELL_DATA        14782
SCALARS cvs float
LOOKUP_TABLE default
 -0.12694666533178336     
  0.14822140747773027     
  0.10331669455299099     
   5.1548400984554724E-002
   2.9635901301946210E-002
   8.2296093171481621E-002
  -4.3886063303634384E-002
   6.4960436100485477E-002
   3.1506209033692112E-002
  -4.7458915014484127E-003
   5.4310206275286189E-002
  0.10150681892485344     
   9.6263819382521668E-002
   4.2301674663743169E-002
  -1.9601219800383374E-002
  0.18669048124726076     
  -1.4660042930047426E-002
  -1.4878063126052415E-003
 -0.10358374736241485     
 -0.13638721485265981     
  -7.7443619278701858E-002
 -0.12001707310850654     
   1.5120286071872921E-003
 -0.13684650781318405     
 -0.15612364025142395     
  -9.3992708200584432E-002
  -4.6860980179801934E-002
 -0.16714535459820329     
 -0.18850889116104702     
 -0.16826991999346108     
 -0.12474207370559073     
  -7.9197922854937042E-002
  -1.9279846352816842E-002
   1.8846091832568149E-003
  -3.5228868880079076E-002
   2.8398555148528695E-002
   5.6092559685486487E-002
  -1.6253868875921597E-002
   9.6965948583274425E-002
   3.8546044840048463E-002
 -0.19860281412559827     
 -0.20376410463101141     
 -0.17730088986395304     
 -0.12463070146023592     
  -6.4257246804674775E-002
 -0.11481460403341892     
 -0.16972606322595526     
 -0.18590056008827699     
 -0.20044641384607290     
   8.7978387653784976E-002
 -0.17235714853930256     
  -3.8513031645324380E-002
 -0.17532514532286880     
  -4.2928287878341229E-002
 -0.18270943043618354     
  -6.9240864006477082E-002
 -0.14371846746702144     
 -0.10054158682206589     
  -7.9221385998264698E-002
 -0.11719754460182068     
  -2.0237918250614703E-002
   8.6189210397761007E-003
   5.4556085576850072E-002
  0.11189700808006259     
  -4.3908016447904652E-002
  0.16219636006202115     
 -0.10198867010843869     
  0.15620079388840341     
 -0.15464641077660857     
 -0.18126231099060980     
  0.10066244225919155     
  -7.9889513419910324E-002
  0.15691318854124930     
  0.10909157905790789     
   8.9439214119414162E-002
   3.6685187003110270E-003
  -3.4606008514840275E-002
  0.13278242995180947     
   9.1125944184557495E-002
  0.13317565188791508     
   9.7018285029803031E-002
  -6.8693434262587366E-002
  0.16624435199845070     
   1.0845680769835777E-002
  0.13346685345159937     
  -2.9195173760980367E-002
  0.20850567549447771     
   2.2772214017782844E-002
  -5.4136541147476624E-002
  0.18532677198772057     
  0.19358269659950855     
  0.16085846332631051     
  -1.4485163178924074E-002
 -0.15938582362670806     
  -8.8048959272293961E-002
  -2.2039549803164388E-002
  -7.4173618338704173E-002
 -0.30333451323738858     
  0.13659673049253523     
 -0.11778898868428242     
 -0.15274766047492283     
 -0.17426902465626498     
 -0.17034341765248909     
  -4.2966056123056810E-002
   5.6469103900497739E-002
  0.34511637292758712     
  -7.8229355372038165E-002
  0.15188956421794320     
  0.14241796810426208     
  0.20830776627079331     
   6.8592330700013818E-002
   5.3143394527680743E-002
  0.21580633549273651     
  0.22911210313534464     
  0.17204523330579846     
  0.15241947011224211     
  0.13089167376341582     
  0.18930634033795879     
  0.13319325803377835     
  0.19578481850327503     
  0.13328681463411712     
  0.17192362398951150     
  0.11155352762591574     
  0.13643325625546393     
  0.11423267187862014     
 -0.13051792926451256     
  0.11999587515294831     
 -0.19158577059009152     
  0.15018067286482450     
 -0.18082273872615978     
  -9.2929810635432084E-002
  0.20477353137206586     
  0.18156416572233280     
  -7.1155485980364724E-002
  0.10720144336606205     
  -4.7781193012479406E-003
 -0.11727008489832744     
 -0.18354002964013788     
 -0.17028785986697331     
 -0.15687955440242157     
  -6.0679457321401883E-002
  0.15126010831279729     
   9.6412636672500218E-002
   3.2409895665651556E-003
 -0.10227835058464559     
 -0.12223885839178426     
  -4.0964632709649201E-002
  -7.4792319066420615E-002
 -0.16679472754922509     
   1.6036522498177691E-002
 -0.19888317138497105     
  -3.3570305020569735E-002
  -7.0883529278656765E-002
  -3.5207667455614794E-002
 -0.59397679849317642     
   2.0154335114158178E-002
  -7.1487978658570456E-002
   9.1306006431097972E-002
 -0.16906088172701056     
  0.18048982403322045     
 -0.19027788911393184     
  0.16379387562816072     
 -0.17797698061064410     
  0.10630879452685008     
 -0.13772130535036181     
  -6.9031598513455139E-002
  -3.8611601321343197E-002
  -7.3949508495521704E-002
  -8.4799720565838510E-003
   5.7879345845507219E-002
  0.10378793223915135     
  0.11903696693857291     
  0.10639729023762402     
   7.5893858814306978E-002
   3.7463120092411942E-002
   4.9945409141075175E-003
  0.46005680626487672     
   1.3652498662097196E-002
  -7.4464307582646772E-002
 -0.15236828544876796     
 -0.29597204590408122     
 -0.29607991891580532     
 -0.25733098283089362     
  0.21957697492676140     
 -0.23103520061109578     
 -0.27911329045050876     
 -0.11990197523334936     
 -0.11015724721018279     
 -0.26427227605135989     
 -0.12599619471263976     
 -0.19698942462212854     
 -0.18886953527134118     
 -0.23658357540166408     
 -0.28207432905343649     
 -0.24389524053706324     
  0.14947555376445637     
   9.6041998173781423E-002
 -0.28423535070969436     
 -0.22008152005110784     
 -0.11816450029412043     
  -1.4138811445245647E-003
   9.2544382988272333E-002
  0.12740507701860795     
   9.1514112223751096E-002
 -0.31623201001487289     
  0.10929166135210221     
 -0.25737275362806744     
  -6.2300035488878219E-002
   7.0777735075151060E-002
  0.27633015394674271     
  0.19418916855429197     
  0.21033074436852145     
  0.18088510617741838     
  0.13437965778485744     
  0.38641240257200965     
 -0.19481662275041661     
   2.0203617659110967E-003
  0.36196113610335523     
 -0.11691226502875336     
  0.32921154280010373     
 -0.14977159622228745     
  0.29404225325842348     
 -0.14503770126526960     
  0.25387380330104448     
 -0.10649026425032054     
  0.21256644775809913     
  0.16627200769296557     
 -0.13671513637574065     
 -0.24331820456665174     
 -0.12589688992593717     
 -0.15001154993160692     
  0.23730141503527974     
 -0.17201573360092512     
 -0.22037589734986326     
  -4.8679211468976621E-002
  0.38050335344521852     
  0.37724626482965312     
 -0.61085728381067783     
  0.19496952591468875     
 -0.49063403761588531     
  0.23038008199213084     
  0.30660821485580042     
  -2.6273160157654837E-002
  0.14403162913509246     
  0.28827848558758645     
  -5.8465781342093875E-002
  0.12596402975512397     
  0.10482590853123445     
 -0.17997982102921872     
  0.25950634078647727     
  0.37255655737249382     
  0.38186000345839566     
  0.27963111357727577     
  -5.8258751260576003E-002
 -0.15508527553272591     
  0.12086648045386739     
  0.28698757232326155     
  0.49859494651351371     
  0.41449832083112476     
 -0.29141233342393363     
  0.25466433233144781     
  0.23057192876011728     
  -7.3858515574290351E-002
 -0.40995648656563377     
 -0.31153903332190136     
 -0.30037132794820803     
  0.11783926369840510     
 -0.72759615816157786     
 -0.64701207717716924     
  0.20715969747764984     
 -0.49231112025216217     
  0.13609488327867836     
  0.11531381004774055     
  -9.9810259277212293E-002
  0.19988816442695792     
   5.0597502808826099E-002
  0.15401497402228270     
  0.20941908862146902     
  0.22507839041853392     
  0.30436350249555760     
  -1.0843550964191068E-002
   1.0249129292103060E-002
  0.10667025536575217     
  0.13541215418942010     
  -4.1380152065735643E-002
  0.40782723960942457     
  0.51507627689842672     
  0.51540330293906411     
 -0.10677623477754326     
  -6.8603410100293166E-002
  -3.5428759121758593E-002
   2.4497621163271477E-002
   6.5228672695895995E-002
  0.25514409321049947     
  0.12809755083314203     
  0.34716766923704984     
   3.5675243617558250E-002
  -4.9476857100994032E-004
   5.1990337747064796E-002
  0.17238212100874600     
  0.33834057533223560     
  0.33660530774308262     
 -0.64250503170682427     
  0.18506966820680343     
   8.2696337500141714E-002
  -2.1774023111953977E-002
  0.35575299334716265     
  0.40953208961375598     
  0.36603018291224565     
 -0.22858924560223259     
  0.14899861217515672     
  -7.1937265683628682E-003
  0.50235124307642243     
  0.56556835992304288     
  0.44399115263316780     
  0.15869857895589579     
  0.19211844114291454     
  -1.7782678056401824E-002
  -4.5951921645178667E-002
 -0.14686850371929522     
  -8.1366160229154605E-002
   6.1959176030741664E-002
  -1.7841200982706862E-002
  -7.8644928665991959E-003
 -0.60938234676110303     
  0.18619037730133792     
  0.41451842459331967     
 -0.51854746977788924     
  0.34244652440969403     
  0.41948142286834400     
 -0.48521637430681636     
  0.17283887220434704     
 -0.22716703996688814     
 -0.25077903618803005     
  -1.9089315614280341E-002
 -0.30449268179198058     
 -0.85661212981066082     
 -0.83475916267857819     
 -0.59712581457134828     
 -0.25110239590631445     
  -1.9697625549505715E-003
 -0.28313947307015203     
  -9.6680403492964528E-002
 -0.55352633131143736     
  0.26139767062876995     
  0.30439995347846799     
 -0.43125596979713809     
   5.3826833156529030E-002
  0.44282870868706381     
  0.46629705988027764     
  0.21450213312925709     
 -0.26765493120546680     
 -0.45107647581421850     
  0.51207764826840485     
 -0.50097831936596160     
 -0.35603499612807976     
  0.12103014941891432     
  0.28681151976897695     
 -0.68810520870135061     
  -1.0514881513107248     
 -0.19062525954438164     
 -0.95477093424679227     
 -0.54494371600031799     
  -9.2522406862064518E-002
 -0.12887915068960948     
  -6.2495753944850777E-003
  -3.4258932689435857E-008
  -3.6875316077945546E-008
  -0.0000000000000000     
  -5.9399461815262761E-002
   1.7387631199970412E-002
   6.1597392006865993E-003
   3.6503262117980190E-002
   1.7489599488659115E-002
   1.4519578685405035E-002
  -6.1303204079855136E-002
  -5.9892086373822453E-003
  -2.8835124933748082E-002
  -7.3768404608259536E-002
   2.2152119814849873E-002
   3.1401816255397640E-002
   3.6270437151175242E-002
  0.10246781333041834     
  -1.9415784715173766E-002
  -1.7955443570328265E-002
   8.1984432483374198E-003
   1.0935719179360173E-002
  -4.1682783587209976E-002
  -5.2719559956611019E-002
  -1.8100680088099133E-002
  -8.9254847280676036E-003
  -3.1883192871698995E-002
  -1.2901802911120461E-003
   1.5407206560723020E-002
  -3.1631204041093292E-002
  -2.2031692069682828E-002
  -1.0247335636823795E-002
   2.8699803851568572E-003
  -4.4265906345530855E-002
  -3.8932426245818622E-002
  -3.1699552214056792E-002
  -2.2979762399965062E-002
  -1.2854378058107411E-002
  -1.9008627045038612E-002
   3.0715628757357553E-002
   1.0615727452544327E-002
  -1.4573747898994974E-003
   3.6573069102840396E-002
   3.4587986805038405E-002
  -5.2544007782603833E-002
   2.7271598932165329E-002
   1.6020431900232515E-002
  -4.6896947511607098E-002
  -4.5915329920573435E-002
  -4.0780617622433561E-002
  -3.2074975614079834E-002
  -4.0604123390452426E-002
  -4.8015379581504945E-002
  -5.4396059795973298E-002
  -5.9200304658191531E-002
   1.4660192404645108E-002
  -2.7733530678685107E-002
  -1.3060882884929379E-002
  -2.8684453233136136E-004
  -9.9447518915504150E-003
  -4.6643712426593219E-003
   8.1413871812359845E-003
  -1.3717283841946289E-002
  -2.0097931518602362E-002
  -2.4439708430204588E-002
  -2.4185428936202010E-002
  -1.8389998357703205E-002
  -5.1635150078698136E-002
  -4.7227015614748132E-002
  -3.2588163396191194E-002
  -3.7541573276120691E-002
  -3.6421598660455079E-002
  -2.8742994532443594E-002
  -1.6038112865526023E-002
   3.0237861486441669E-002
   2.0320585853842128E-002
   7.1789387894147265E-003
  -6.7218738553089883E-003
  -2.8102010800017299E-002
  -5.9509121083682469E-002
  -3.3631155121200601E-002
  -3.6402501791053629E-002
  -3.7925379751991083E-002
   4.1567068268478285E-003
  -3.9772890119771767E-002
  -9.7158130973179595E-003
  -4.2911441809292093E-002
  -2.1402868235041582E-002
  -2.8958762133261200E-002
   4.3421920292983647E-002
  -5.4536958462024332E-002
  -3.1759087586964031E-002
  -5.4260532919447393E-002
  -3.0618862350168911E-002
  -4.9657507353551900E-002
  -2.7419220280095323E-002
  -4.0939317567831202E-002
  -2.4300051553779671E-002
  -2.9616665033456474E-002
  -2.2899267609669864E-002
  -1.7794194305531801E-002
  -2.3937755101547914E-002
  -7.7053349570998797E-003
  -2.7226489330033844E-002
   3.0604178712763185E-002
   1.0945723751293671E-004
  -3.6492302118626765E-002
  -3.9328097558061319E-002
  -3.8802306219665454E-002
  -3.4314815617434928E-002
   3.0059887913050365E-003
  -2.6775491840685839E-002
  -2.6447288641536393E-002
  -2.2153980938141381E-002
  -2.4655626718114176E-002
  0.11983309346956234     
  -7.3142415410067843E-002
   5.3408256487293575E-002
  -1.2603213317686010E-002
   1.5211250135890364E-002
   1.0818625243804430E-002
   4.4689616885940954E-003
  -3.7387815583958608E-003
  -5.1259720480871018E-002
  -1.3080283190485811E-003
  -1.1936995150300136E-002
  -2.3681344537136176E-002
  -1.3419946089139096E-002
  -1.9756743741101826E-002
  -3.4165576471833242E-002
  -4.3811745815401537E-002
  -4.6473342650433826E-002
   1.4754426415471276E-002
  -4.2302562843769667E-002
   1.1116475128466977E-002
  -3.3533301140373006E-002
   2.5928765601258407E-003
  -2.2979412502149923E-002
  -8.3710283300856558E-003
  -2.8601465405910763E-003
   6.6690731395522770E-003
   1.5933469786776504E-002
   2.3573243219976364E-002
   2.7102751629497646E-002
   2.4170187197795727E-002
   1.4323538669939644E-002
  -3.9183851094448316E-005
  -1.4425795612769198E-002
  -2.4086348315614438E-002
  -3.3407020598491349E-002
  -3.1710361970890506E-002
   2.1276800017806994E-002
   6.6209487297683254E-003
  -2.0206443151898991E-002
  -1.0432422062143946E-002
   9.2498001811280785E-003
   1.9731542969811586E-002
   8.9249081469866386E-003
  -6.5698709214632636E-003
  -5.7013268334232391E-002
  -8.0428383564844427E-003
  -4.7695327769621154E-002
  -4.6952743483359247E-002
  -6.1659414083025846E-002
  -6.8361875946602910E-002
  -6.6666267409643182E-002
  0.10066421756224898     
  -4.5195140984149576E-002
  -4.1742114043568229E-002
  -6.9133510383363475E-002
  -3.8604288019046688E-002
  -7.6529166108967706E-002
  -3.2539999839049052E-002
  -7.4082429100209096E-002
  -2.1598641738425271E-002
  -6.5315772347089351E-002
  -5.5852540496655279E-002
  -7.0801759461221386E-002
  -5.0415805102751843E-002
   2.1399780725445849E-002
  -5.0405263458887940E-002
   1.2594278477030955E-002
  -5.3571578559337044E-002
  -3.4584323827727735E-003
  -5.5628203729518051E-002
  -2.0279161836842113E-002
  -5.2574016567431825E-002
  -3.1118764856132932E-002
  -4.2562505265115499E-002
  -3.2015156411091886E-002
  -2.6658823864742581E-002
  -8.8056205739067122E-003
   5.3329091872381072E-003
   1.0492385520827600E-002
   4.5008391512195677E-003
  -9.5880689257537392E-003
  -1.0734565584784445E-003
  -9.4918786124725818E-003
  -5.2366521875285392E-003
  -3.3820585907107348E-002
  -5.6347267910014681E-002
  -4.9883372992145993E-002
   9.2933800596892241E-002
   9.6941383145533355E-002
  -7.4649661696155917E-002
  -7.8458181600065985E-002
  -6.7824682098607952E-002
  -2.6466589662088258E-002
  -1.3948083458579334E-002
  -2.5711190590396508E-002
   3.6420362323129965E-002
  -3.8846345044296571E-002
   9.9369425881969033E-004
   2.3282668990280926E-002
  -5.6216141777607656E-002
   3.3233559040611489E-002
  -4.8307297002037113E-002
   3.1543472109702764E-002
  -1.7263988886613683E-002
   2.2212673693957741E-002
  -5.3514748773128076E-003
  -3.2682525738972033E-003
  -2.0329288328169753E-002
  -3.4330909434904112E-002
  -2.4514894489000391E-002
  -4.3657129163018671E-002
  -4.4170016304571999E-002
  -3.4415589245257686E-002
  -3.1569109817275523E-003
   4.0883213255474518E-002
   5.1095810668183889E-002
  -2.0534001707356128E-002
  -1.1158236975133108E-002
   4.9927389985410416E-003
   3.1333139765474839E-002
   8.3005905394652094E-002
   8.1066598164781081E-002
  -3.3760970189287837E-002
   6.7909707672305052E-003
   4.8866847766041610E-002
   9.7668734357639023E-002
  -2.4947303144717738E-002
   1.8787881271613516E-002
   9.0601679831520371E-002
   6.3111392411190306E-002
   8.7011642181589605E-002
   9.5723447572174006E-002
   7.7134870566862135E-002
  0.11042423079125949     
   5.7901926137503397E-002
  0.10967900260620542     
  0.10217787937455376     
  -5.0657754940596295E-002
   9.7058463103403922E-002
  -1.0604812796326423E-002
   9.8566441394605214E-002
   4.4420336054358626E-003
  0.10454197861497391     
   2.3186689521157974E-002
  0.10857810836115309     
   3.3543078140843077E-002
  0.10387592635806811     
   8.6792838384300963E-002
   5.9253270777383377E-002
   2.9398271858992041E-002
   8.9395319546445029E-003
   3.2029946844445191E-002
   4.7920245468403122E-002
  -6.9106533514666321E-002
   3.0884060405360965E-002
   4.7659142362712265E-002
   8.6093415088531161E-002
   7.7763796553227654E-002
  -5.3838521028016222E-002
  -4.4927082433474874E-002
  -3.9864470169351900E-002
  -3.4546995905462827E-002
  -2.0770642784853993E-002
  0.10072534365628071     
   7.2003114764151749E-002
   2.8427636343229798E-002
  0.10706953966367029     
   9.2689934640377017E-002
   6.7773814880895719E-002
   4.5349484866540501E-002
   7.1699638639710225E-002
   3.4346938948547297E-002
   9.8898364441104947E-002
   4.7862170522307568E-002
   6.3348585752429909E-002
   5.0483509119731262E-002
   1.8821582008199118E-002
   8.3721422831983527E-002
  -1.8920518554680979E-003
   6.9177795874630216E-002
  -9.2527448003816848E-003
  -6.4631487832632062E-003
   2.9946838549053941E-002
   2.4512544734464556E-003
   4.5500212434464948E-002
   6.4572211481470340E-002
   3.1164283573340890E-002
   4.6559267743753623E-002
   5.5671236812497325E-002
   4.1539105225758058E-002
   3.0467267021233969E-002
  -8.6457343215700325E-002
   1.0640677790905381E-002
  -1.5637834369518669E-002
  -4.1608076259171879E-002
  -4.8852231480422587E-002
   8.5632490112959453E-002
  0.10188526686450047     
  0.10694534146456186     
   4.7133806976387915E-002
   7.3990491986831719E-003
  0.11397330629329547     
   9.3952863647256621E-002
   5.4340755652146300E-002
  -6.4188383718386727E-002
   1.2755863139239751E-002
  -6.9082906121080659E-002
  -1.5142003350821664E-002
  -6.1894111568638957E-002
  -2.4894377718474144E-002
  -2.3440922734671028E-002
  -2.2176419847314090E-002
   4.0169347312114644E-003
  -2.9438998766566929E-002
   1.0189847109649382E-002
  -4.6836319586923802E-002
  -8.9076827249124163E-002
  -7.3178739571620757E-002
  -4.5508731092626584E-002
  0.14230010987727537     
  -5.6970057482334385E-002
  -7.3774118877735398E-002
  -5.0753791390779388E-002
   9.6911091614106576E-002
  -3.2219981659943824E-002
   1.9392040193377093E-003
  -3.7297475443265282E-002
  -1.8531323203218181E-002
   1.0063573338376264E-002
   3.4988891424258720E-002
   4.7523846829789697E-002
  -6.2210432139895133E-002
   2.2103433906228889E-002
  -1.2557146719542583E-002
  -1.0657320083420158E-002
  -7.8657396870459029E-002
   2.9319592594252569E-002
  -8.5752034699441509E-002
   6.1890774350105905E-002
   8.2114270142723655E-002
   8.6204536585156200E-002
   7.1226088715969166E-002
   3.7679258096661720E-002
  -7.0525115526457391E-003
  -4.8724466993686946E-002
  -7.7230894693086055E-002
   2.2904017775209975E-002
   8.2665388982244264E-002
  0.12360943243184944     
  0.13594132948294704     
  0.12357156780072781     
   6.4886135422215663E-002
  0.10742720922069726     
  0.15060166160452843     
 -0.10270978481617296     
   2.9571386372420419E-002
 -0.16665254580001160     
 -0.10701131855335341     