# vtk DataFile Version 3.1
Mesh with Data
ASCII
DATASET UNSTRUCTURED_GRID
POINTS         7552 float
      0.200000E+03      0.000000E+00      0.200000E+03
      0.000000E+00      0.000000E+00      0.200000E+03
      0.197500E+03      0.000000E+00      0.200000E+03
      0.195000E+03      0.000000E+00      0.200000E+03
      0.192500E+03      0.000000E+00      0.200000E+03
      0.190000E+03      0.000000E+00      0.200000E+03
      0.187500E+03      0.000000E+00      0.200000E+03
      0.185000E+03      0.000000E+00      0.200000E+03
      0.182500E+03      0.000000E+00      0.200000E+03
      0.180000E+03      0.000000E+00      0.200000E+03
      0.177500E+03      0.000000E+00      0.200000E+03
      0.175000E+03      0.000000E+00      0.200000E+03
      0.172500E+03      0.000000E+00      0.200000E+03
      0.170000E+03      0.000000E+00      0.200000E+03
      0.167500E+03      0.000000E+00      0.200000E+03
      0.165000E+03      0.000000E+00      0.200000E+03
      0.162500E+03      0.000000E+00      0.200000E+03
      0.160000E+03      0.000000E+00      0.200000E+03
      0.157500E+03      0.000000E+00      0.200000E+03
      0.155000E+03      0.000000E+00      0.200000E+03
      0.152500E+03      0.000000E+00      0.200000E+03
      0.150000E+03      0.000000E+00      0.200000E+03
      0.147500E+03      0.000000E+00      0.200000E+03
      0.145000E+03      0.000000E+00      0.200000E+03
      0.142500E+03      0.000000E+00      0.200000E+03
      0.140000E+03      0.000000E+00      0.200000E+03
      0.137500E+03      0.000000E+00      0.200000E+03
      0.135000E+03      0.000000E+00      0.200000E+03
      0.132500E+03      0.000000E+00      0.200000E+03
      0.130000E+03      0.000000E+00      0.200000E+03
      0.127500E+03      0.000000E+00      0.200000E+03
      0.125000E+03      0.000000E+00      0.200000E+03
      0.122500E+03      0.000000E+00      0.200000E+03
      0.120000E+03      0.000000E+00      0.200000E+03
      0.117500E+03      0.000000E+00      0.200000E+03
      0.115000E+03      0.000000E+00      0.200000E+03
      0.112500E+03      0.000000E+00      0.200000E+03
      0.110000E+03      0.000000E+00      0.200000E+03
      0.107500E+03      0.000000E+00      0.200000E+03
      0.105000E+03      0.000000E+00      0.200000E+03
      0.102500E+03      0.000000E+00      0.200000E+03
      0.100000E+03      0.000000E+00      0.200000E+03
      0.975000E+02      0.000000E+00      0.200000E+03
      0.950000E+02      0.000000E+00      0.200000E+03
      0.925000E+02      0.000000E+00      0.200000E+03
      0.900000E+02      0.000000E+00      0.200000E+03
      0.875000E+02      0.000000E+00      0.200000E+03
      0.850000E+02      0.000000E+00      0.200000E+03
      0.825000E+02      0.000000E+00      0.200000E+03
      0.800000E+02      0.000000E+00      0.200000E+03
      0.775000E+02      0.000000E+00      0.200000E+03
      0.750000E+02      0.000000E+00      0.200000E+03
      0.725000E+02      0.000000E+00      0.200000E+03
      0.700000E+02      0.000000E+00      0.200000E+03
      0.675000E+02      0.000000E+00      0.200000E+03
      0.650000E+02      0.000000E+00      0.200000E+03
      0.625000E+02      0.000000E+00      0.200000E+03
      0.600000E+02      0.000000E+00      0.200000E+03
      0.575000E+02      0.000000E+00      0.200000E+03
      0.550000E+02      0.000000E+00      0.200000E+03
      0.525000E+02      0.000000E+00      0.200000E+03
      0.500000E+02      0.000000E+00      0.200000E+03
      0.475000E+02      0.000000E+00      0.200000E+03
      0.450000E+02      0.000000E+00      0.200000E+03
      0.425000E+02      0.000000E+00      0.200000E+03
      0.400000E+02      0.000000E+00      0.200000E+03
      0.375000E+02      0.000000E+00      0.200000E+03
      0.350000E+02      0.000000E+00      0.200000E+03
      0.325000E+02      0.000000E+00      0.200000E+03
      0.300000E+02      0.000000E+00      0.200000E+03
      0.275000E+02      0.000000E+00      0.200000E+03
      0.250000E+02      0.000000E+00      0.200000E+03
      0.225000E+02      0.000000E+00      0.200000E+03
      0.200000E+02      0.000000E+00      0.200000E+03
      0.175000E+02      0.000000E+00      0.200000E+03
      0.150000E+02      0.000000E+00      0.200000E+03
      0.125000E+02      0.000000E+00      0.200000E+03
      0.100000E+02      0.000000E+00      0.200000E+03
      0.750000E+01      0.000000E+00      0.200000E+03
      0.500000E+01      0.000000E+00      0.200000E+03
      0.250000E+01      0.000000E+00      0.200000E+03
      0.000000E+00      0.000000E+00      0.000000E+00
      0.000000E+00      0.000000E+00      0.197500E+03
      0.000000E+00      0.000000E+00      0.195000E+03
      0.000000E+00      0.000000E+00      0.192500E+03
      0.000000E+00      0.000000E+00      0.190000E+03
      0.000000E+00      0.000000E+00      0.187500E+03
      0.000000E+00      0.000000E+00      0.185000E+03
      0.000000E+00      0.000000E+00      0.182500E+03
      0.000000E+00      0.000000E+00      0.180000E+03
      0.000000E+00      0.000000E+00      0.177500E+03
      0.000000E+00      0.000000E+00      0.175000E+03
      0.000000E+00      0.000000E+00      0.172500E+03
      0.000000E+00      0.000000E+00      0.170000E+03
      0.000000E+00      0.000000E+00      0.167500E+03
      0.000000E+00      0.000000E+00      0.165000E+03
      0.000000E+00      0.000000E+00      0.162500E+03
      0.000000E+00      0.000000E+00      0.160000E+03
      0.000000E+00      0.000000E+00      0.157500E+03
      0.000000E+00      0.000000E+00      0.155000E+03
      0.000000E+00      0.000000E+00      0.152500E+03
      0.000000E+00      0.000000E+00      0.150000E+03
      0.000000E+00      0.000000E+00      0.147500E+03
      0.000000E+00      0.000000E+00      0.145000E+03
      0.000000E+00      0.000000E+00      0.142500E+03
      0.000000E+00      0.000000E+00      0.140000E+03
      0.000000E+00      0.000000E+00      0.137500E+03
      0.000000E+00      0.000000E+00      0.135000E+03
      0.000000E+00      0.000000E+00      0.132500E+03
      0.000000E+00      0.000000E+00      0.130000E+03
      0.000000E+00      0.000000E+00      0.127500E+03
      0.000000E+00      0.000000E+00      0.125000E+03
      0.000000E+00      0.000000E+00      0.122500E+03
      0.000000E+00      0.000000E+00      0.120000E+03
      0.000000E+00      0.000000E+00      0.117500E+03
      0.000000E+00      0.000000E+00      0.115000E+03
      0.000000E+00      0.000000E+00      0.112500E+03
      0.000000E+00      0.000000E+00      0.110000E+03
      0.000000E+00      0.000000E+00      0.107500E+03
      0.000000E+00      0.000000E+00      0.105000E+03
      0.000000E+00      0.000000E+00      0.102500E+03
      0.000000E+00      0.000000E+00      0.100000E+03
      0.000000E+00      0.000000E+00      0.975000E+02
      0.000000E+00      0.000000E+00      0.950000E+02
      0.000000E+00      0.000000E+00      0.925000E+02
      0.000000E+00      0.000000E+00      0.900000E+02
      0.000000E+00      0.000000E+00      0.875000E+02
      0.000000E+00      0.000000E+00      0.850000E+02
      0.000000E+00      0.000000E+00      0.825000E+02
      0.000000E+00      0.000000E+00      0.800000E+02
      0.000000E+00      0.000000E+00      0.775000E+02
      0.000000E+00      0.000000E+00      0.750000E+02
      0.000000E+00      0.000000E+00      0.725000E+02
      0.000000E+00      0.000000E+00      0.700000E+02
      0.000000E+00      0.000000E+00      0.675000E+02
      0.000000E+00      0.000000E+00      0.650000E+02
      0.000000E+00      0.000000E+00      0.625000E+02
      0.000000E+00      0.000000E+00      0.600000E+02
      0.000000E+00      0.000000E+00      0.575000E+02
      0.000000E+00      0.000000E+00      0.550000E+02
      0.000000E+00      0.000000E+00      0.525000E+02
      0.000000E+00      0.000000E+00      0.500000E+02
      0.000000E+00      0.000000E+00      0.475000E+02
      0.000000E+00      0.000000E+00      0.450000E+02
      0.000000E+00      0.000000E+00      0.425000E+02
      0.000000E+00      0.000000E+00      0.400000E+02
      0.000000E+00      0.000000E+00      0.375000E+02
      0.000000E+00      0.000000E+00      0.350000E+02
      0.000000E+00      0.000000E+00      0.325000E+02
      0.000000E+00      0.000000E+00      0.300000E+02
      0.000000E+00      0.000000E+00      0.275000E+02
      0.000000E+00      0.000000E+00      0.250000E+02
      0.000000E+00      0.000000E+00      0.225000E+02
      0.000000E+00      0.000000E+00      0.200000E+02
      0.000000E+00      0.000000E+00      0.175000E+02
      0.000000E+00      0.000000E+00      0.150000E+02
      0.000000E+00      0.000000E+00      0.125000E+02
      0.000000E+00      0.000000E+00      0.100000E+02
      0.000000E+00      0.000000E+00      0.750000E+01
      0.000000E+00      0.000000E+00      0.500000E+01
      0.000000E+00      0.000000E+00      0.250000E+01
      0.200000E+03      0.000000E+00      0.000000E+00
      0.250000E+01      0.000000E+00      0.000000E+00
      0.500000E+01      0.000000E+00      0.000000E+00
      0.750000E+01      0.000000E+00      0.000000E+00
      0.100000E+02      0.000000E+00      0.000000E+00
      0.125000E+02      0.000000E+00      0.000000E+00
      0.150000E+02      0.000000E+00      0.000000E+00
      0.175000E+02      0.000000E+00      0.000000E+00
      0.200000E+02      0.000000E+00      0.000000E+00
      0.225000E+02      0.000000E+00      0.000000E+00
      0.250000E+02      0.000000E+00      0.000000E+00
      0.275000E+02      0.000000E+00      0.000000E+00
      0.300000E+02      0.000000E+00      0.000000E+00
      0.325000E+02      0.000000E+00      0.000000E+00
      0.350000E+02      0.000000E+00      0.000000E+00
      0.375000E+02      0.000000E+00      0.000000E+00
      0.400000E+02      0.000000E+00      0.000000E+00
      0.425000E+02      0.000000E+00      0.000000E+00
      0.450000E+02      0.000000E+00      0.000000E+00
[...]
CELL_DATA        14782
SCALARS cvp float
LOOKUP_TABLE default
  -5.7646156400954288E-002
   1.6923375563849145E-002
  0.11286789970592327     
   9.3816567007373557E-003
  -3.4947595875321619E-002
   1.3838754310454372E-002
 -0.12169073590427927     
  -4.6748539184136961E-002
  -9.0875094675842732E-002
 -0.11638179342515667     
  -1.8581284472644604E-002
  -3.2966193678530167E-002
  -4.2749772490459748E-002
  -3.1064079753257978E-002
  -1.2479475940826504E-002
  0.22361885166335937     
   3.2967005480966496E-002
  -7.6373639623539949E-002
  -4.7572375248608655E-002
  -5.2849138057217492E-002
  -3.6019382011771420E-002
  -1.8526393918475860E-002
  -5.5721291354277884E-002
  -2.0930492962189927E-002
  -2.6126262500201627E-002
  -8.8541107701606420E-002
 -0.11459591476504515     
  -2.8233544945779378E-002
  -2.8069132987296935E-002
  -5.1588840525406646E-002
  -8.7829216771187893E-002
 -0.11694358526179199     
  -9.6910954491837425E-002
  -5.0839758843690207E-002
   8.3273398707614799E-002
   5.9562049172615962E-004
   7.6167728552063968E-002
   8.8524658913654686E-002
   7.1291902359561454E-002
  0.18207539255646585     
   4.3000196406161012E-002
  0.10787768169804952     
  0.15982814183249305     
  0.17710429531835092     
 -0.10226476231470161     
  -6.9773336460811311E-002
  -3.7366088552012178E-002
  -4.0406627647599808E-002
  -2.5741594546024468E-002
  -4.1988502740785985E-002
   8.6313806148722610E-002
 -0.11232577493730581     
  -4.6391006175166088E-002
  -8.9239010898061522E-002
  -2.3023760360550087E-002
  -3.9167803237354935E-002
  -2.5899159539404110E-002
   1.9220858217088084E-002
  -5.3587163502619412E-002
   6.5187676205959388E-002
  -8.6116686125029401E-002
  -9.8465770166945452E-002
   1.8845073280330416E-002
   4.2760891144429977E-002
  -2.4161043786379965E-002
   3.6860333061114386E-002
   3.8755721070797458E-002
   4.7889165621114324E-002
   8.8751659851185022E-002
  0.10937255408993457     
 -0.47947392393185595     
  -2.8041830959823572E-002
   3.9118152830826980E-002
   6.9828503761994148E-002
  -3.5840257848738580E-003
  -3.1197930764169293E-002
  -4.6530339701977952E-002
  -1.6103893881426079E-002
   1.5411746364201062E-002
  -3.9679687821950631E-002
   5.0514948370604815E-002
   2.2133388970108081E-004
   3.6393269246927949E-002
  -1.2902401984807424E-002
  -5.8259794312710195E-002
   1.2461478816840954E-002
  0.10843462323034879     
   8.8306426046204145E-002
  0.15034530943057889     
  -3.4268406011044222E-002
  -1.9039691526206097E-002
   3.5601985173400227E-002
 -0.40310744016978012     
  -1.0728662605678899E-002
  -3.6659053158815125E-002
  0.21472517360011759     
  0.19829447587325047     
 -0.28289285756403804     
   3.0109120498496660E-002
  0.14030410755958045     
   6.3049245213074728E-002
  -6.9523650338828777E-003
  -4.9575865972168773E-002
  -3.7723502388961550E-002
  -5.6010021161671929E-003
 -0.42835847353117146     
   9.9838232952749018E-002
   7.9156533607044194E-003
  0.22930723698520594     
   6.6533438571021869E-002
   8.3885416856656098E-002
   6.2494344661797832E-002
   1.4533567982073572E-002
   1.8859874377531838E-002
  0.14754196816338791     
   6.1758111142845497E-002
  0.27557867950663750     
   3.8731764157185607E-002
  0.26564824782506569     
   3.5277022512356926E-002
  0.20271097832780954     
   7.5475525160557944E-002
  0.11013765126011746     
  0.15449075070600696     
  0.24025561171415286     
  -7.5687423668827372E-002
  0.29308844823125446     
  -7.2832458946467449E-002
  0.28740663591996640     
  -5.1572803019146976E-002
  -2.8525497285944557E-002
  0.12567667356774753     
   2.7607874246995699E-002
 -0.19533028421603321     
  -4.2853811321356183E-002
  -7.4429472498435581E-002
  -7.3007380876768696E-002
  -5.4498721703061789E-002
  -3.5558290095060854E-002
 -0.17610881178975571     
  -2.3996005839683018E-002
   7.8946632223286850E-002
   1.4465391006310044E-002
  -9.1823122809827615E-002
 -0.19660046416001251     
  0.12948623469389905     
  0.29549323488487944     
  0.29312649009031388     
   6.8727843794004095E-002
   7.9628093726975019E-002
  0.14903252563228203     
  0.14467757635245482     
  0.23076150789784433     
   7.5172855527425531E-002
 -0.31489358042091409     
  0.22997914756773624     
   7.7022849678896041E-002
  0.12020784941095453     
  0.21113018768576280     
  -6.8601954944978130E-002
  0.27610707567037418     
  -9.2363450749908621E-002
  0.28258193556668221     
  -7.2521148175501149E-002
  0.21672636762679448     
   8.0207502537251396E-002
  -6.4607602811466089E-003
  -2.6135450181921926E-003
  -2.3102188692237995E-002
 -0.10667853723808741     
 -0.12726956697277908     
  -9.2373942181751864E-002
  -3.3002462206560820E-002
   1.4935774595404027E-002
   2.8934064909890360E-002
   6.7779870936899578E-003
 -0.44761778188822954     
 -0.35987320346977969     
   8.7088100722880424E-002
  0.19226278347462050     
 -0.11081226911651723     
   3.7495299874825555E-002
  0.22934163011688746     
   7.7653893663741064E-002
  0.21397910796799316     
  0.16658607391855099     
   6.2276685555985617E-002
  0.11005982444590418     
 -0.22005315277634049     
  0.17182959721466987     
 -0.24997151043997129     
  0.13438060622129153     
   2.7896820930912516E-003
 -0.15717444692266741     
  -5.5698487256492311E-002
   8.3080228313477986E-002
   3.7335348888663585E-002
 -0.32572905821690529     
 -0.27356542070522538     
 -0.15455489907024700     
  -2.1254123611273337E-002
   7.4906639058601246E-002
  0.10558264976115100     
   7.3802441496509996E-002
  -6.6452459097327068E-002
   1.7056663075727618E-002
 -0.12170519985410780     
 -0.45810782845222064     
 -0.22960417754877349     
  -1.5944786244982523E-002
   2.9285849198422781E-002
  -9.6011228763353051E-002
   6.8152472997316457E-002
  -5.6639081221482090E-002
   2.8639938053687988E-002
 -0.21368700022131218     
 -0.38418407532228915     
   6.4040667870568460E-002
 -0.42403827470538769     
   3.6709677017110684E-002
 -0.30047535178995388     
  -7.7699617320654640E-002
 -0.13904696007250594     
 -0.25032398346346624     
   1.4954826581251718E-003
 -0.41465235804478445     
 -0.50248850246341392     
   4.1144977055885081E-002
 -0.19918969693745620     
  -4.6882815328515723E-002
   4.2283406199106824E-002
 -0.13505122418318422     
   6.0339304828979180E-002
   2.4194043296308292E-002
  -4.9835123131044823E-003
 -0.41211719645026829     
 -0.52734924524447213     
 -0.16582060915009494     
 -0.25259866111069668     
 -0.44028567607527347     
 -0.42426268160664915     
 -0.53269673045972055     
  -9.4204006385396222E-002
  0.65885027240057292     
 -0.24140699026603621     
 -0.23422605693694187     
  -8.8150468364628476E-002
 -0.51898787759432041     
  -2.8725133334619180E-003
 -0.52139771655085476     
 -0.40564807052757673     
 -0.22582294010058740     
  -6.3573254410552837E-002
   2.5962109035143621E-004
  -8.2101885567804608E-002
  -7.3433572164853245E-002
  -2.6271483259918516E-002
 -0.47836263041661981     
 -0.38439994693058965     
 -0.30517949124238480     
  0.16676144903905918     
   6.0030343896647624E-002
 -0.34746782605891818     
 -0.23059132430574508     
 -0.28888266897960624     
 -0.46094624772705062     
 -0.14262831242540236     
 -0.25219747427201744     
 -0.37861271596253110     
  0.13392378548870509     
 -0.41110907232061922     
  -1.2542429122096466E-002
 -0.19824678954685671     
  -9.1709609333549172E-002
 -0.34385198791411320     
  0.13633230456165688     
  0.27285510992635159     
  0.25502665329820068     
   9.4235098079817864E-002
 -0.33809738905802944     
  -2.3788639331937885E-003
  0.20180014203488378     
  0.29862595721343532     
  0.38165999692025737     
  0.46459976955804128     
  -9.2830426541776090E-002
   5.4294234231908406E-002
  0.31407650535291742     
  -4.4601158519645828E-003
  0.26046913788182302     
 -0.22137056315369469     
  0.51352470287341190     
 -0.16824062440641230     
  0.12152804528277333     
   2.7102025620049208E-002
 -0.16652630506629146     
  0.53035618921242356     
  0.61742891104742936     
  0.51856777031533785     
  0.27273330388950290     
 -0.27748955273782416     
 -0.41504150157384007     
  0.52414265494862522     
  -2.2869952335735418E-002
  0.22794658272100551     
  0.50070292121960891     
  -6.3377428175490580E-002
  0.44992862821905538     
  0.57887580980590381     
  0.70226666662481896     
  0.72829916373608139     
  0.69589666156330510     
   4.9278418935766288E-002
  0.29067814671412734     
  0.56174416942594829     
 -0.18385873068985550     
  0.73511739535537357     
 -0.23509339490699449     
  0.73011607573042570     
  0.55614336980244650     
  0.29972396694826453     
   6.7140240926646610E-002
 -0.10931524628508370     
   3.4285167506473258E-002
  0.30995639320234319     
   1.0497254520643318E-002
  0.18904871606073442     
  0.55862419182520484     
  0.11922798345558211     
  0.36071571274000136     
   8.7373437225800488E-002
  0.58086951862850311     
  -1.0102785242096290E-002
  0.65030500097737765     
  0.16674954790087096     
  0.31226952048032219     
  0.27144501073674621     
   3.1428361464176380E-002
  -7.0974796955474040E-002
   4.6843227024570000E-003
  0.41863497475270250     
  0.57558984360641796     
  0.39871102544572656     
   3.4925375385067681E-002
  0.72010901280284489     
  0.91373464260153869     
  0.26572980342123664     
  0.66718972419176492     
  0.94383728858146831     
   1.0563866824482999     
   1.0051346081259023     
  0.75847504234330221     
  0.34155015218882484     
   1.0743834130038126     
  0.57411381151878260     
  0.87558352840489473     
  0.98649630982305325     
  0.95948674984059290     
  0.62757568316114898     
  0.63885064640310374     
  0.53242009656742839     
  0.32086821233754070     
  0.23276535932704343     
  -1.7788210153334594E-002
  -9.3669744765986079E-005
  -4.1421559542199789E-003
  -3.8323012347021910E-008
  -2.4760546078221289E-008
  -0.0000000000000000     
  -2.2692914331205790E-003
  -2.3670570401982498E-003
  -1.3460917904443988E-002
  -1.4864490425593969E-002
  -2.1620565491161835E-002
  -9.3815435893563372E-003
  -1.7697776567707512E-003
  -1.4755637617979028E-002
   5.8063860017929384E-003
   3.0482590915031107E-002
  -1.2934858152789584E-002
  -1.5718256261678724E-002
  -9.1936518786989337E-003
  -8.2631211672414065E-003
  -1.4131217042995730E-002
   1.1707529039371610E-002
  -2.3863186099826288E-003
   5.2672161341039588E-003
  -6.0512245306838545E-003
  -3.7682225842960845E-003
  -2.4790949634805385E-002
   1.0695028315214055E-002
   2.5154571767915898E-002
   1.2660195920685877E-002
  -3.0352151884466504E-002
  -1.2762386110066578E-002
   9.0222311991219536E-004
  -1.5145099580948784E-003
  -6.3788154611928837E-003
  -1.0290481008401315E-002
  -9.1165494108039185E-003
  -7.2649354952781320E-003
  -5.3673837112343508E-003
  -4.4809036069774801E-003
   4.9781981167247432E-003
   2.6955987546262335E-004
  -8.8190669856491374E-003
  -5.5920801950675725E-003
  -1.1321071710896548E-002
  -1.6559790697551074E-002
   1.0945460478067260E-002
  -1.6481041661593768E-002
  -1.2248524031204867E-002
  -1.0773152708594096E-002
  -1.1019916609437531E-002
  -1.1600005484863505E-002
   9.9548626389673288E-004
  -1.7891182296553851E-004
  -1.4130557224394996E-003
  -1.9750032594618807E-003
  -1.8940104773761670E-003
   6.8281302158697335E-003
  -8.2437503097149666E-003
  -9.0443655359443050E-003
  -7.2578736547276104E-003
   1.3870472197497975E-002
   1.7689405421125719E-002
   1.4883523166769001E-002
   1.5827757988693764E-002
   1.7100004897779280E-002
   1.8449814300439241E-002
   2.0409134474238474E-002
   2.3237243370659723E-002
   1.7077694477800588E-002
   1.5632757490848685E-002
   1.4975255731087366E-002
   1.7554529691109828E-002
   1.6482059146603511E-002
   9.5261159260230949E-003
  -2.6396587705233730E-003
  -2.1223535539013225E-002
  -1.9316146327940806E-002
  -1.2162555284414161E-002
  -2.9335454562258593E-003
   9.6560929164365115E-003
   4.6586220262070412E-003
   1.1073432599269217E-002
   1.0642876696450240E-002
   1.0244562232338165E-002
  -1.3069130305477690E-002
   1.1091863358242020E-002
  -2.1922331342806274E-003
   1.3209768062725842E-002
   7.1666822926729993E-003
   1.2758116073924134E-002
  -4.9819840693770559E-002
   1.6687039209563843E-002
   1.4363192905508785E-002
   1.4408160271105034E-002
   1.3648530362743341E-002
   1.0950699074664129E-002
   1.3019317767634417E-002
   7.4796367606467162E-003
   1.4092342541648421E-002
   5.1831732719406828E-003
   1.7094083282723983E-002
   5.0565470438967593E-003
   2.0957195326569741E-002
   7.6296501967834177E-003
   2.4059357104154085E-002
  -6.9722649411515597E-002
   1.9454611969234453E-002
   2.3887359411011829E-002
   2.0757779259289441E-002
   1.6864411253215750E-002
   1.3480707672341346E-002
  -3.2577149603531141E-002
   1.1591642770459952E-002
   1.6578632902060530E-002
   1.3190898088415406E-002
  -4.7800427155553910E-004
   7.1215655409116063E-002
   7.0647710896701965E-002
  -2.3461041384657363E-002
   1.0723109972724534E-002
   3.3161067398952832E-002
   2.6887785152751337E-002
   2.0966142278990983E-002
   1.5347726551996961E-002
  -7.0215785609703540E-004
  -1.6594684075638622E-002
  -1.2255583829502583E-002
   1.2229142514220392E-002
   1.2065414405527695E-002
  -3.5640439051048776E-003
   1.0076949179978711E-002
   1.7714035554405698E-002
   1.8294386114569218E-002
   3.1284308682036091E-002
   1.4302176464749218E-002
   3.2520876370206120E-002
   9.8045599173229650E-003
   3.0053716508838479E-002
   8.1989418434386015E-003
   2.6666679404734800E-002
   1.6327291282149430E-002
   2.2920900273110098E-002
   2.8467619874508222E-002
   3.1670750477023536E-002
   3.2327000766285079E-002
   3.1052920533529756E-002
   2.8662414459750964E-002
   2.5782503464087815E-002
   2.2739604920682284E-002
   1.9661112073167591E-002
  -8.2775313529359143E-003
  -1.8124357422293569E-002
  -5.3989256811029437E-002
  -4.7586376048499510E-002
  -3.3278090249749800E-002
  -2.3848550248934168E-002
   3.8678469499707716E-003
   2.0043152171060473E-002
   2.0803672706067443E-002
   2.0936453708362120E-002
   2.1069133718888373E-002
  -9.5203353444363020E-003
   3.6166919930289525E-003
   1.0672053295819056E-002
   2.0036526744515271E-002
   1.9964130202520584E-002
   1.3103837035326582E-002
   1.4872836613214688E-003
  -9.0848332045916427E-004
   3.3709106271567705E-003
   2.1526262068913345E-002
   9.8069448910904477E-003
   2.1545841819306039E-002
   1.5750913286071533E-002
   1.3492225453443758E-002
   1.9524319464137581E-002
   3.0771920032366291E-003
  -4.3673979659278449E-003
  -1.5639144488991459E-002
  -6.1770956557334212E-003
   1.9053463102775801E-002
  -2.6856562020573420E-003
   1.7600388098235890E-002
   3.4850819488781784E-003
   1.5161069366270027E-002
   9.0969184373027485E-003
   1.1230758908954142E-002
   1.2183984394352070E-002
   5.5575731749117827E-003
   1.2676086467921689E-002
  -1.8367079085225974E-003
   1.1724333358173619E-002
   1.0654469681241306E-002
   1.0079112962733689E-002
   9.6035622868096346E-003
   8.2334815014362111E-003
   5.0347852243696756E-003
  -4.0885338165485438E-002
  -5.1382986155966918E-002
  -6.0942766263363118E-004
  -1.2781936348098157E-002
  -4.3662672780946134E-003
   6.4567734868912867E-004
   1.3055256685560426E-002
   1.0533537388723190E-002
   2.5446255251962986E-002
   2.6866951307815731E-002
   1.7476200118704974E-002
  -7.7777893571744543E-003
  -3.1519663228135528E-003
   2.1764004430271829E-003
   1.3996368739357223E-002
   3.4907379643099295E-003
  -7.4679870421341509E-003
  -1.3039946919298280E-002
  -9.0798727967755372E-003
  -1.0213041241698480E-002
  -1.1907950793759850E-002
  -3.0741728257083559E-003
  -1.2884993731769948E-002
   2.8810389151574627E-003
  -1.3892691606247181E-002
  -1.7287430425703677E-002
  -8.2639867566754958E-003
  -1.5912085733614537E-002
  -4.4495867922430411E-002
  -2.1231883978454200E-002
  -2.3616218511443087E-002
  -2.4160408173533106E-002
  -2.7263695572904294E-002
  -6.2013852722826585E-002
  -7.0118909575846086E-002
   1.9003727743520937E-002
  -3.9876536718141786E-002
  -3.8740252573750515E-002
  -3.5971204868274514E-002
   3.8662100274530903E-003
  -1.1337299484551439E-002
   3.0529690001798792E-002
   1.3241769998280282E-002
  -3.5105436590716493E-003
  -8.1952506888589814E-003
   3.5979258668596949E-002
   1.8099170246227078E-002
   7.2458899665157860E-003
  -4.2856623182901260E-004
  -4.6629047865276788E-003
  -9.7737377587674770E-003
  -1.8262163919913650E-002
  -6.8697269840494457E-003
  -2.9352755453480282E-002
   4.1618004032110655E-003
   1.5408957496234926E-002
   8.1008321063667010E-002
   1.9800023056826072E-002
  -4.1785214686894931E-002
   1.4533014884262008E-002
  -4.5953221016001737E-002
   1.4580742680764397E-003
  -5.2644422997348464E-002
  -1.4486175713219753E-002
  -6.1031811032633651E-002
  -2.8109972681481174E-002
  -3.6629112566253473E-002
  -4.0401528936762493E-002
  -4.1797841378990903E-002
  -4.3603295490040779E-002
  -4.5221563779855235E-002
  -5.1507120798740903E-002
  -2.7228373114852846E-002
  -4.1949853089293360E-002
  -3.5919858392996766E-002
  -3.5137877562787974E-002
  -3.1852525259396018E-002
  -3.7942520154059280E-002
  -2.7732232272627163E-002
  -7.4631126400626366E-003
   1.4526249074681748E-002
   2.8055042348704248E-002
  -7.2905819612230117E-003
   6.4908979460012867E-003
   2.8570032761501760E-002
  -6.6394065781409627E-003
   5.8367783274852515E-003
   2.1335902685491240E-002
   3.0417472248300270E-002
   1.0192824293269492E-002
   2.7705677988394045E-002
  -6.5981404832502755E-003
  -4.8051491906981863E-003
  -2.1594303307936040E-002
   2.0922799177140856E-002
   3.2316897090252497E-002
  -3.4367135830808859E-002
   3.1121689537337145E-002
  -3.3630337931888674E-002
   1.7490485021953939E-002
  -2.2636264913696380E-003
  -5.0272129383929845E-002
  -2.0074694280329958E-002
  -5.8405430114939913E-002
  -6.4213884252772552E-002
  -3.2056681191888557E-002
  -2.8276686022510916E-002
  -2.4026433291518386E-002
  -2.8085681712621324E-002
  -3.6398993066998432E-002
  -4.9455856996215696E-003
  -5.0014408999633844E-003
   8.1293927284456606E-003
   4.3512603910897223E-003
  -4.3692376807061686E-002
  -6.4328687040880270E-003
  -6.4574687012969693E-003
  -1.5170360915502707E-002
   1.1701680550145968E-002
   2.6560177523902162E-002
  -1.9891415810734340E-002
  -1.4303423889477508E-002
   3.2659683179240969E-003
  -3.5291573848915757E-002
   1.9321806928055137E-002
  -2.2863823968554183E-002
   2.2098249956078755E-002
  -7.3540179391622489E-003
   8.5797023434550229E-003
  -1.5001012746043820E-002
  -3.7345384047198102E-002
   3.8848419998130570E-003
  -4.8439638195577360E-002
  -1.3362013812799339E-002
  -4.4178889358060219E-002
   1.4406222579027994E-002
   2.5043150864744915E-002
   2.5599909013361673E-002
   7.3406247843027572E-002
   5.1264632322543607E-002
   5.5567043415824295E-002
   4.3951120400961767E-002
   1.5690708943334308E-003
   5.1935175773303623E-003
  -7.5341328444937863E-004
  -7.6724801127667566E-003
  -3.4636388058200421E-002
  -6.2645586785511548E-002
  -7.8085582515273838E-002
  -7.3409815274286791E-002
  -4.1267189933383297E-003
  -1.5647152291968839E-002
   1.8416281912658983E-002
  -7.4859008639497585E-002
   5.7280297441192105E-002
  -9.3720138363553890E-002
   5.9606676194713770E-002
  -9.0506512988771270E-002
  -6.5250498165537324E-002
  -2.6583172843374765E-002
   1.3630253642567761E-002
   4.5550825010246793E-002
   6.4484662773449178E-002
   7.1269602638710169E-002
   6.8532227499516818E-002
   7.8671024567935566E-002
   7.7960533009972022E-002
   4.1123848103392521E-002
   6.5530504938031670E-002
   7.5859989180881618E-002
   4.2152620030050172E-002
   6.5968571551696581E-002
   7.2200078311764601E-002
   8.5845044303488702E-002
   6.1540237177924881E-002
   9.8220028571300175E-002
   6.6613749818609305E-002