# vtk DataFile Version 3.1
Mesh with Data
ASCII
DATASET UNSTRUCTURED_GRID
POINTS         7552 float
      0.200000E+03      0.000000E+00      0.200000E+03
      0.000000E+00      0.000000E+00      0.200000E+03
      0.197500E+03      0.000000E+00      0.200000E+03
      0.195000E+03      0.000000E+00      0.200000E+03
      0.192500E+03      0.000000E+00      0.200000E+03
      0.190000E+03      0.000000E+00      0.200000E+03
      0.187500E+03      0.000000E+00      0.200000E+03
      0.185000E+03      0.000000E+00      0.200000E+03
      0.182500E+03      0.000000E+00      0.200000E+03
      0.180000E+03      0.000000E+00      0.200000E+03
      0.177500E+03      0.000000E+00      0.200000E+03
      0.175000E+03      0.000000E+00      0.200000E+03
      0.172500E+03      0.000000E+00      0.200000E+03
      0.170000E+03      0.000000E+00      0.200000E+03
      0.167500E+03      0.000000E+00      0.200000E+03
      0.165000E+03      0.000000E+00      0.200000E+03
      0.162500E+03      0.000000E+00      0.200000E+03
      0.160000E+03      0.000000E+00      0.200000E+03
      0.157500E+03      0.000000E+00      0.200000E+03
      0.155000E+03      0.000000E+00      0.200000E+03
      0.152500E+03      0.000000E+00      0.200000E+03
      0.150000E+03      0.000000E+00      0.200000E+03
      0.147500E+03      0.000000E+00      0.200000E+03
      0.145000E+03      0.000000E+00      0.200000E+03
      0.142500E+03      0.000000E+00      0.200000E+03
      0.140000E+03      0.000000E+00      0.200000E+03
      0.137500E+03      0.000000E+00      0.200000E+03
      0.135000E+03      0.000000E+00      0.200000E+03
      0.132500E+03      0.000000E+00      0.200000E+03
      0.130000E+03      0.000000E+00      0.200000E+03
      0.127500E+03      0.000000E+00      0.200000E+03
      0.125000E+03      0.000000E+00      0.200000E+03
      0.122500E+03      0.000000E+00      0.200000E+03
      0.120000E+03      0.000000E+00      0.200000E+03
      0.117500E+03      0.000000E+00      0.200000E+03
      0.115000E+03      0.000000E+00      0.200000E+03
      0.112500E+03      0.000000E+00      0.200000E+03
      0.110000E+03      0.000000E+00      0.200000E+03
      0.107500E+03      0.000000E+00      0.200000E+03
      0.105000E+03      0.000000E+00      0.200000E+03
      0.102500E+03      0.000000E+00      0.200000E+03
      0.100000E+03      0.000000E+00      0.200000E+03
      0.975000E+02      0.000000E+00      0.200000E+03
      0.950000E+02      0.000000E+00      0.200000E+03
      0.925000E+02      0.000000E+00      0.200000E+03
      0.900000E+02      0.000000E+00      0.200000E+03
      0.875000E+02      0.000000E+00      0.200000E+03
      0.850000E+02      0.000000E+00      0.200000E+03
      0.825000E+02      0.000000E+00      0.200000E+03
      0.800000E+02      0.000000E+00      0.200000E+03
      0.775000E+02      0.000000E+00      0.200000E+03
      0.750000E+02      0.000000E+00      0.200000E+03
      0.725000E+02      0.000000E+00      0.200000E+03
      0.700000E+02      0.000000E+00      0.200000E+03
      0.675000E+02      0.000000E+00      0.200000E+03
      0.650000E+02      0.000000E+00      0.200000E+03
      0.625000E+02      0.000000E+00      0.200000E+03
      0.600000E+02      0.000000E+00      0.200000E+03
      0.575000E+02      0.000000E+00      0.200000E+03
      0.550000E+02      0.000000E+00      0.200000E+03
      0.525000E+02      0.000000E+00      0.200000E+03
      0.500000E+02      0.000000E+00      0.200000E+03
      0.475000E+02      0.000000E+00      0.200000E+03
      0.450000E+02      0.000000E+00      0.200000E+03
      0.425000E+02      0.000000E+00      0.200000E+03
      0.400000E+02      0.000000E+00      0.200000E+03
      0.375000E+02      0.000000E+00      0.200000E+03
      0.350000E+02      0.000000E+00      0.200000E+03
      0.325000E+02      0.000000E+00      0.200000E+03
      0.300000E+02      0.000000E+00      0.200000E+03
      0.275000E+02      0.000000E+00      0.200000E+03
      0.250000E+02      0.000000E+00      0.200000E+03
      0.225000E+02      0.000000E+00      0.200000E+03
      0.200000E+02      0.000000E+00      0.200000E+03
      0.175000E+02      0.000000E+00      0.200000E+03
      0.150000E+02      0.000000E+00      0.200000E+03
      0.125000E+02      0.000000E+00      0.200000E+03
      0.100000E+02      0.000000E+00      0.200000E+03
      0.750000E+01      0.000000E+00      0.200000E+03
      0.500000E+01      0.000000E+00      0.200000E+03
      0.250000E+01      0.000000E+00      0.200000E+03
      0.000000E+00      0.000000E+00      0.000000E+00
      0.000000E+00      0.000000E+00      0.197500E+03
      0.000000E+00      0.000000E+00      0.195000E+03
      0.000000E+00      0.000000E+00      0.192500E+03
      0.000000E+00      0.000000E+00      0.190000E+03
      0.000000E+00      0.000000E+00      0.187500E+03
      0.000000E+00      0.000000E+00      0.185000E+03
      0.000000E+00      0.000000E+00      0.182500E+03
      0.000000E+00      0.000000E+00      0.180000E+03
      0.000000E+00      0.000000E+00      0.177500E+03
      0.000000E+00      0.000000E+00      0.175000E+03
      0.000000E+00      0.000000E+00      0.172500E+03
      0.000000E+00      0.000000E+00      0.170000E+03
      0.000000E+00      0.000000E+00      0.167500E+03
      0.000000E+00      0.000000E+00      0.165000E+03
      0.000000E+00      0.000000E+00      0.162500E+03
      0.000000E+00      0.000000E+00      0.160000E+03
      0.000000E+00      0.000000E+00      0.157500E+03
      0.000000E+00      0.000000E+00      0.155000E+03
      0.000000E+00      0.000000E+00      0.152500E+03
      0.000000E+00      0.000000E+00      0.150000E+03
      0.000000E+00      0.000000E+00      0.147500E+03
      0.000000E+00      0.000000E+00      0.145000E+03
      0.000000E+00      0.000000E+00      0.142500E+03
      0.000000E+00      0.000000E+00      0.140000E+03
      0.000000E+00      0.000000E+00      0.137500E+03
      0.000000E+00      0.000000E+00      0.135000E+03
      0.000000E+00      0.000000E+00      0.132500E+03
      0.000000E+00      0.000000E+00      0.130000E+03
      0.000000E+00      0.000000E+00      0.127500E+03
      0.000000E+00      0.000000E+00      0.125000E+03
      0.000000E+00      0.000000E+00      0.122500E+03
      0.000000E+00      0.000000E+00      0.120000E+03
      0.000000E+00      0.000000E+00      0.117500E+03
      0.000000E+00      0.000000E+00      0.115000E+03
      0.000000E+00      0.000000E+00      0.112500E+03
      0.000000E+00      0.000000E+00      0.110000E+03
      0.000000E+00      0.000000E+00      0.107500E+03
      0.000000E+00      0.000000E+00      0.105000E+03
      0.000000E+00      0.000000E+00      0.102500E+03
      0.000000E+00      0.000000E+00      0.100000E+03
      0.000000E+00      0.000000E+00      0.975000E+02
      0.000000E+00      0.000000E+00      0.950000E+02
      0.000000E+00      0.000000E+00      0.925000E+02
      0.000000E+00      0.000000E+00      0.900000E+02
      0.000000E+00      0.000000E+00      0.875000E+02
      0.000000E+00      0.000000E+00      0.850000E+02
      0.000000E+00      0.000000E+00      0.825000E+02
      0.000000E+00      0.000000E+00      0.800000E+02
      0.000000E+00      0.000000E+00      0.775000E+02
      0.000000E+00      0.000000E+00      0.750000E+02
      0.000000E+00      0.000000E+00      0.725000E+02
      0.000000E+00      0.000000E+00      0.700000E+02
      0.000000E+00      0.000000E+00      0.675000E+02
      0.000000E+00      0.000000E+00      0.650000E+02
      0.000000E+00      0.000000E+00      0.625000E+02
      0.000000E+00      0.000000E+00      0.600000E+02
      0.000000E+00      0.000000E+00      0.575000E+02
      0.000000E+00      0.000000E+00      0.550000E+02
      0.000000E+00      0.000000E+00      0.525000E+02
      0.000000E+00      0.000000E+00      0.500000E+02
      0.000000E+00      0.000000E+00      0.475000E+02
      0.000000E+00      0.000000E+00      0.450000E+02
      0.000000E+00      0.000000E+00      0.425000E+02
      0.000000E+00      0.000000E+00      0.400000E+02
      0.000000E+00      0.000000E+00      0.375000E+02
      0.000000E+00      0.000000E+00      0.350000E+02
      0.000000E+00      0.000000E+00      0.325000E+02
      0.000000E+00      0.000000E+00      0.300000E+02
      0.000000E+00      0.000000E+00      0.275000E+02
      0.000000E+00      0.000000E+00      0.250000E+02
      0.000000E+00      0.000000E+00      0.225000E+02
      0.000000E+00      0.000000E+00      0.200000E+02
      0.000000E+00      0.000000E+00      0.175000E+02
      0.000000E+00      0.000000E+00      0.150000E+02
      0.000000E+00      0.000000E+00      0.125000E+02
      0.000000E+00      0.000000E+00      0.100000E+02
      0.000000E+00      0.000000E+00      0.750000E+01
      0.000000E+00      0.000000E+00      0.500000E+01
      0.000000E+00      0.000000E+00      0.250000E+01
      0.200000E+03      0.000000E+00      0.000000E+00
      0.250000E+01      0.000000E+00      0.000000E+00
      0.500000E+01      0.000000E+00      0.000000E+00
      0.750000E+01      0.000000E+00      0.000000E+00
      0.100000E+02      0.000000E+00      0.000000E+00
      0.125000E+02      0.000000E+00      0.000000E+00
      0.150000E+02      0.000000E+00      0.000000E+00
      0.175000E+02      0.000000E+00      0.000000E+00
      0.200000E+02      0.000000E+00      0.000000E+00
      0.225000E+02      0.000000E+00      0.000000E+00
      0.250000E+02      0.000000E+00      0.000000E+00
      0.275000E+02      0.000000E+00      0.000000E+00
      0.300000E+02      0.000000E+00      0.000000E+00
      0.325000E+02      0.000000E+00      0.000000E+00
      0.350000E+02      0.000000E+00      0.000000E+00
      0.375000E+02      0.000000E+00      0.000000E+00
      0.400000E+02      0.000000E+00      0.000000E+00
      0.425000E+02      0.000000E+00      0.000000E+00
      0.450000E+02      0.000000E+00      0.000000E+00
[...]
CELL_DATA        14782
SCALARS model_vp float
LOOKUP_TABLE default
   1099.9093800193323     
   1100.1451595085764     
   1100.1049811657867     
   1099.9167376368532     
   1099.9069084393427     
   1100.0884506112052     
   1099.9952101425140     
   1100.0707374501233     
   1100.0390874717414     
   1099.9994083150950     
   1099.9635088384207     
   1099.9687922709259     
   1099.9631148647893     
   1099.9590956514169     
   1099.9529155158586     
   1099.9768087755956     
   1100.0433486947063     
   1100.0244715339850     
   1099.9537431079182     
   1099.9257763256596     
   1099.9517346287587     
   1099.9464181686260     
   1099.9556557289925     
   1099.9426272422143     
   1099.9311069321070     
   1099.9349074219328     
   1099.9611951449976     
   1099.9445925780178     
   1099.9317704641551     
   1099.9240684990607     
   1099.9307219507245     
   1099.9560006673039     
   1100.0368841727236     
   1100.0695684827274     
   1100.2275529834531     
   1100.0884412334965     
   1100.2415568887131     
   1100.2605521595722     
   1100.2595965128039     
   1100.0845939707522     
   1099.9336257671994     
   1099.9467593764743     
   1099.9802692606547     
   1100.0258031219921     
   1099.9437780035319     
   1099.9223396150394     
   1099.9220289375612     
   1099.9516462779445     
   1099.9354276006356     
   1099.9335983369913     
   1100.3624143627085     
   1099.9832500873888     
   1099.9566796516685     
   1100.0277213691738     
   1099.9385342992098     
   1100.0616811325999     
   1099.9220728201271     
   1100.0757958912309     
   1099.9190169368114     
   1100.0715889159023     
   1099.9383638290781     
   1099.9780486027680     
   1099.8986366141994     
   1100.1112127638362     
   1100.0599608636023     
   1100.1650711024317     
   1100.0725555573688     
   1100.2202884019864     
   1100.0620179816094     
   1100.0393749652360     
   1099.9465516401547     
   1099.6508194336304     
   1100.1991086143328     
   1100.2357177293857     
   1100.0433928075172     
   1100.0002159951787     
   1099.8820087728948     
   1099.9340846471607     
   1100.0720704701519     
   1100.0296875387567     
   1099.9192135695985     
   1099.9246157054708     
   1099.9399087547727     
   1099.9163807857290     
   1099.9762298230710     
   1099.9265881177284     
   1100.1486067788449     
   1100.0858892927008     
   1100.0670253159215     
   1099.9798514382737     
   1100.0389754330999     
   1100.0875340390867     
   1099.5030627838507     
   1099.9410172151318     
   1099.9647397506253     
   1100.0364339790888     
   1099.9804657787026     
   1099.9322526377482     
   1100.0893942400853     
   1099.9350084016921     
   1099.9083542364051     
   1099.8986744317301     
   1099.9000861217114     
   1099.9285347185710     
   1099.9618198704843     
   1099.4679602695426     
   1099.9725507091266     
   1099.9664238009973     
   1100.1481982379134     
   1100.1354987098657     
   1100.0192460247727     
   1100.1205733687812     
   1099.9949192609567     
   1100.0692289093602     
   1100.1662917803887     
   1099.9432923290965     
   1100.0899444454544     
   1100.0040642849494     
   1100.0167464581373     
   1100.0872141679472     
   1099.9547979241245     
   1100.1645990878965     
   1099.9171391659179     
   1100.2049682977529     
   1100.1907510922740     
   1099.8515193052763     
   1100.1290589199107     
   1099.8058992462559     
   1100.0472382550201     
   1099.7620040703230     
   1099.7455349154848     
   1099.9365813949482     
   1099.9235699464757     
   1100.0374630149304     
   1099.9162077113931     
   1099.8888243596064     
   1099.8287875946601     
   1099.7470064135380     
   1099.6755128792154     
   1099.8791786808281     
   1099.5301120245883     
   1100.0691081836928     
   1100.1630075140051     
   1100.1867044999619     
   1100.1458717353794     
   1100.3165309809126     
   1100.1127671978497     
   1100.2130677657537     
   1100.2725416497638     
   1100.2209322781111     
   1100.3755820602007     
   1100.2825897417165     
   1100.2793638535156     
   1100.1327367587053     
   1099.3771995084421     
   1100.0200155300161     
   1100.2442737035153     
   1099.9683211396286     
   1100.3195807300856     
   1099.9948081033715     
   1100.2517658615873     
   1100.0159145444122     
   1100.1418651137922     
   1099.9925418875375     
   1100.0353567014795     
   1100.1701032265012     
   1099.7719308858861     
   1099.6287322627832     
   1099.9694787004714     
   1100.0117569739737     
   1100.0625388881276     
   1100.0787632348706     
   1100.0293889226318     
   1099.9094781665567     
   1099.7457796824040     
   1099.5888619477746     
   1099.5858610008613     
   1100.0152300731206     
   1100.1840271465960     
   1100.1763232512233     
   1099.9284730886770     
   1099.9474325176154     
   1100.1749431731425     
   1100.3107431021372     
   1100.3041230608139     
   1100.0389785032387     
   1100.3733847048509     
   1100.3900942932012     
   1099.9775780168004     
   1100.3157741624602     
   1100.0638378532963     
   1100.0246062007957     
   1099.9169643041871     
   1099.8867314075476     
   1099.9136489684961     
   1099.9184216630338     
   1099.7441288479704     
   1100.0236580991632     
   1100.1208277950968     
   1100.1900810819625     
   1100.2113596815577     
   1100.1764567457049     
   1100.0852588194161     
   1099.9469398362296     
   1099.8333181311566     
   1099.6617076015918     
   1100.1319304784761     
   1099.9046948818832     
   1099.7704873813213     
   1099.8377785455814     
   1100.3930918630913     
   1099.6381543071441     
   1099.9636860769158     
   1099.8228296591631     
   1100.2992018546017     
   1099.9431646725989     
   1099.8093536062067     
   1100.1249187634958     
   1100.0075820249417     
   1099.9218020519863     
   1100.0826886873938     
   1099.7624736720554     
   1100.1240785546422     
   1099.6982532785155     
   1100.1480693762819     
   1099.7361351071011     
   1099.8384657534732     
   1100.1622736240877     
   1099.5495572842945     
   1100.0429383021635     
   1100.0710643269076     
   1099.1986081173075     
   1100.1363788887079     
   1100.2105455419332     
   1099.7665747472245     
   1099.9309290352928     
   1099.8485080432329     
   1099.3675800733156     
   1099.5454705546115     
   1099.5249693762444     
   1099.5804830145883     
   1099.7067038992411     
   1099.5838074417470     
   1100.4265472952454     
   1099.9195512888400     
   1099.4735093695342     
   1099.8401330293270     
   1099.6405518028243     
   1099.7791081693858     
   1099.8074596937961     
   1099.9159903937120     
   1099.9119120103794     
   1099.8035104676358     
   1099.5872495830133     
   1099.6574911352373     
   1100.3091608723701     
   1099.4505104057023     
   1099.3949536789914     
   1099.2428747270887     
   1099.9176719437858     
   1099.6755868780003     
   1099.8818411023253     
   1099.9136685739049     
   1099.4436081887793     
   1099.6912219572414     
   1099.7367543780313     
   1099.9726849710178     
   1099.3357906328124     
   1099.4830528596656     
   1099.4441775573951     
   1099.7101344823211     
   1099.3000977684903     
   1099.3317594369917     
   1100.0166000772670     
   1099.5615523738118     
   1099.9623863083366     
   1099.7712455600613     
   1099.5137386127103     
   1099.2903976824239     
   1099.2987431403367     
   1099.9957609316020     
   1101.3570974785089     
   1100.2007234290502     
   1099.5670083171931     
   1100.0068351496191     
   1100.0389113814490     
   1100.2733497658028     
   1100.3586566054612     
   1100.1051006673524     
   1100.1248120590074     
   1099.6985860096438     
   1099.7995931874802     
   1099.9695961857662     
   1099.3661699987460     
   1100.1553118414135     
   1099.2439275001466     
   1100.1124045224249     
   1099.9433626287534     
   1099.7556508973405     
   1099.5874990730294     
   1099.3572096311800     
   1099.3460431072776     
   1100.1715924930668     
   1099.9883973803453     
   1100.0026626354870     
   1099.9909940055932     
   1100.0699750031006     
   1100.5861134161069     
   1100.2965273470415     
   1100.2376934331205     
   1100.1568242052494     
   1100.0354499222392     
   1100.3339420493226     
   1100.4443345048296     
   1100.3916356410552     
   1099.8794884837578     
   1100.2445939885010     
   1099.6955700280439     
   1100.1172767281580     
   1100.1010125293417     
   1100.1986407946501     
   1100.3125485139180     
   1100.1250057590064     
   1101.0588798606402     
   1100.2941914984772     
   1100.4239281306059     
   1100.5995296838180     
   1100.1631675826500     
   1100.6553939890466     
   1100.6723739843203     
   1100.6001863753877     
   1100.5215947872807     
   1100.9235836108376     
   1100.3054820495975     
   1100.8799202719672     
   1100.4360287710326     
   1100.2454018399637     
   1100.5523570814182     
   1100.9798185591424     
   1101.3158106182973     
   1101.0330684152771     
   1100.4678927661287     
   1101.7975174639530     
   1101.6259184352550     
   1101.5757413724809     
   1101.0143297289071     
   1101.7685015294478     
   1101.8275777127551     
   1101.5010815751000     
   1100.8852670039626     
   1101.5304264138965     
   1101.6091420278542     
   1101.3910814215099     
   1101.1187712285937     
   1101.1815512438830     
   1101.3748338308108     
   1101.2793297902172     
   1100.8720160168868     
   1100.7803925327059     
   1100.5638268673554     
   1100.6944917706253     
   1100.2059323638130     
   1100.3681546186419     
   1099.9918304411535     
   1099.9596869483723     
   1099.9983753066149     
   1099.9999999760237     
   1099.9999999619642     
   1100.0000000000000     
   1099.9885643363000     
   1100.0615317232298     
   1100.0407939812853     
   1100.0217283296588     
   1099.9983686061951     
   1100.0529855275436     
   1099.9827439727296     
   1100.0271127596673     
   1100.0280284902585     
   1100.0172668404830     
   1100.0222580276127     
   1100.0225287017408     
   1100.0204157880653     
   1100.0239236849993     
   1100.0139089154809     
   1100.0365934051756     
   1100.0622682307080     
   1100.0690963215850     
   1100.0085306313938     
   1099.9972642039008     
   1099.9695187694256     
   1100.0030733194055     
   1099.9905836230246     
   1100.0590768522752     
   1099.9388404292206     
   1100.0025274898899     
   1100.0031782216624     
   1100.0095379153759     
   1100.0142129193914     
   1099.9865353238285     
   1099.9902704452129     
   1099.9961807833695     
   1100.0032474435445     
   1100.0102912108330     
   1099.9943830615964     
   1100.0184814158131     
   1100.0202812290026     
   1100.0162236512497     
   1100.0183099042190     
   1100.0185207834509     
   1099.9777636168865     
   1100.0181787989479     
   1100.0169526802317     
   1099.9856778995718     
   1099.9880723456747     
   1099.9937628221326     
   1099.9959291555053     
   1099.9889467354394     
   1099.9834283914761     
   1099.9802727919891     
   1099.9799814015184     
   1100.0649428427696     
   1100.0218560774788     
   1100.0363689500587     
   1100.0505857077976     
   1100.0423153616011     
   1100.0443403974843     
   1100.0700003030336     
   1099.9985358807151     
   1100.0010300091690     
   1100.0032185713778     
   1100.0061383701741     
   1100.0094731327908     
   1099.9824188934040     
   1099.9760223823178     
   1099.9658942822671     
   1099.9691930895474     
   1099.9732526303449     
   1099.9765742172647     
   1099.9787981391187     
   1100.0083384111799     
   1100.0058043377719     
   1100.0030824874009     
   1099.9994513783049     
   1099.9880006545034     
   1099.9835864041370     
   1099.9810832326548     
   1099.9749796512085     
   1099.9709916876041     
   1099.9952395867651     
   1099.9698414779309     
   1099.9916893096340     
   1099.9716373100314     
   1099.9870590270964     
   1099.9812450865829     
   1100.0181509173362     
   1099.9903082458584     
   1099.9749421502581     
   1099.9993258958245     
   1099.9695968551425     
   1100.0093038587613     
   1099.9665874404243     
   1100.0201990086825     
   1099.9666636908905     
   1100.0317536151483     
   1099.9698348504637     
   1100.0431838785955     
   1099.9754883922517     
   1100.0530138218999     
   1099.9827045477366     
   1099.9405720833829     
   1100.0593274628984     
   1099.9984981559955     
   1100.0061432234738     
   1100.0136125618696     
   1100.0212332596855     
   1099.9380183556516     
   1100.0290910601616     
   1099.9808596119287     
   1099.9747953215015     
   1099.9417592519701     
   1100.2030762447432     
   1100.1315064153057     
   1099.9248207946400     
   1099.9781623180747     
   1100.0056489022350     
   1099.9898605473779     
   1099.9808671452504     
   1099.9728963260989     
   1099.9881436273263     
   1099.9808751263270     
   1100.0264613833697     
   1099.9649361002139     
   1099.9672809561198     
   1099.9742401935434     
   1099.9739800634163     
   1099.9726281443802     
   1099.9702540659105     
   1099.9985100290621     
   1099.9682844229437     
   1100.0104813425692     
   1099.9684257246711     
   1100.0125952940912     
   1099.9717372348687     
   1100.0120290772170     
   1099.9867770316582     
   1099.9962640789736     
   1100.0052103958476     
   1100.0123345599807     
   1100.0165992306884     
   1100.0173217493630     
   1100.0142193062559     
   1100.0076269744525     
   1099.9986599239573     
   1099.9891075785263     
   1099.9236259909464     
   1099.9123830668404     
   1099.9329780929963     
   1099.9314951762278     
   1099.9146056039197     
   1099.9310390816554     
   1100.0357221113156     
   1100.0240325586460     
   1100.0286464203532     
   1100.0289790594361     
   1100.0240440951757     
   1100.0319068027197     
   1100.0172992946145     
   1099.9747762073580     
   1099.9783054896329     
   1099.9801084447997     
   1099.9812744050837     
   1100.0436314594790     
   1099.9949910042576     
   1100.0034027155114     
   1099.9840328054784     
   1100.0121561992814     
   1099.9882207702292     
   1100.0199712104938     
   1099.9910912512789     
   1100.0258375913093     
   1099.9943642820983     
   1099.9991182539527     
   1099.9326411632339     
   1100.0056374921721     
   1100.0144960815999     
   1100.0133451096578     
   1100.0000486178440     
   1100.0209344874540     
   1099.9818651751293     
   1100.0271453327707     
   1099.9622737528309     
   1100.0312683591637     
   1099.9444234813952     
   1100.0329500377791     
   1099.9313096698866     
   1100.0317649562196     
   1100.0270205940419     
   1100.0179135785550     
   1100.0038756594777     
   1099.9851898103639     
   1099.9635067208310     
   1099.9240190530538     
   1099.9149855453998     
   1100.0291096840867     
   1100.0028998609116     
   1100.0282328083008     
   1100.0329988690130     
   1100.0281143475052     
   1100.0379947204317     
   1099.9987070306884     
   1100.0074029931520     
   1100.0131351220186     
   1100.0214001382226     
   1100.0360159699505     
   1100.0375366738072     
   1099.9706886778320     
   1100.0363160125519     
   1100.0311845643846     
   1100.0350992588599     
   1100.0220571894818     
   1100.0390819523327     
   1100.0138943025822     
   1100.0412015765794     
   1099.9885083623296     
   1100.0400979140966     
   1099.9708444361586     
   1099.9509527677599     
   1100.0215506112670     
   1100.0137210302801     
   1099.9056600323781     
   1100.0053522354722     
   1099.9955952345429     
   1099.9836845386073     
   1099.9538450798268     
   1099.9394992037044     
   1099.9499660463894     
   1099.9964278764262     
   1099.9529353732096     
   1099.9619889032906     
   1099.9709983438777     
   1100.0167082539158     
   1100.0447512798287     
   1100.0417752372032     
   1100.0440945020641     
   1100.0441868176244     
   1100.0452851083480     
   1100.0479701026877     
   1100.0488026095816     
   1100.0154657095748     
   1100.0468285465126     
   1100.0022851972606     
   1100.0452172356743     
   1099.9903443951132     
   1100.0437786913187     
   1099.9801491127143     
   1100.0404237360681     
   1100.0330785377619     
   1100.0569525666929     
   1100.0212970359130     
   1099.9446654614294     
   1100.0065091824235     
   1099.9385232062245     
   1099.9912341084014     
   1099.9355255194978     
   1099.9777058664336     
   1099.9360820576414     
   1099.9667590910162     
   1099.9577562456896     
   1099.9495103369304     
   1099.9416126316712     
   1099.9349588471175     
   1099.9477720767979     
   1099.9717198940500     
   1099.9817287225335     
   1099.9222995312314     
   1099.9203947683495     
   1099.9357005499489     
   1099.9409734008152     
   1099.9458310119778     
   1099.9393750991630     
   1099.9393655669787     
   1099.9471610580977     
   1099.9606229774433     
   1100.0380936143624     
   1100.0444785249422     
   1100.0507414269398     
   1100.0326223062909     
   1100.0264890422179     
   1100.0172819077811     
   1100.0038852949699     
   1100.0402315641966     
   1099.9873673532793     
   1100.0313655324744     
   1099.9569286100677     
   1099.9473538213724     
   1100.0072770278184     
   1099.9940107462846     
   1099.9299637636984     
   1099.9776584106269     
   1099.9240658853842     
   1099.9615621638989     
   1099.9492257142999     
   1099.9323473551533     
   1099.9420557837182     
   1099.9506688259185     
   1099.9739922381821     
   1099.9369048634085     
   1099.9339363532702     
   1099.9293116040342     
   1099.9241545785965     
   1099.9312558496006     
   1099.9904953859404     
   1099.9668110176769     
   1099.9610139691049     
   1099.9635050726019     
   1099.9298946878744     
   1099.9957086151524     
   1100.0147365917676     
   1100.0040894522751     
   1099.9869992417628     
   1099.9752169629789     
   1099.9938691072746     
   1099.9853884744377     
   1099.9776425483094     
   1099.9548123131290     
   1099.9671062498990     
   1099.9619549774229     
   1099.9537916060956     
   1099.9647415505744     
   1099.9418132323697     
   1099.9363006906071     
   1099.9401552644974     
   1099.9610034331979     
   1099.9521826601876     
   1099.9802494011099     
   1099.9678217018927     
   1099.9938892241953     
   1099.9940187324337     
   1099.9939506343242     
   1100.1264323391083     
   1100.0889128966817     
   1100.0866742990604     
   1100.0632252869707     
   1100.0912285919098     
   1099.9448481082004     
   1099.9558675727778     
   1099.9345896816785     
   1099.9317949484946     
   1099.9413253946229     
   1099.9628630408245     
   1099.9909290284838     
   1099.9428349324367     
   1100.0393426709056     
   1100.0535318355865     
   1099.9405657437333     
   1100.0716175466707     
   1099.9650877092927     
   1100.0799647002802     
   1099.9978761729701     
   1100.0305926254189     
   1100.0569047790930     
   1100.0754418748145     
   1100.0892497117734     
   1100.1026061190298     
   1100.1173870341549     
   1100.1395665360446     
   1100.2066391006028     
   1100.1746688506837     
   1100.1049127693848     
   1100.1200685060699     
   1100.1432939793506     
   1100.0975072361448     
   1100.1068258147411     
   1100.1602915406102     
   1100.0603174924843     
   1100.0729282394043     
   1100.0207509338336     
   1100.0199462710416     