# vtk DataFile Version 3.1
Mesh with Data
ASCII
DATASET UNSTRUCTURED_GRID
POINTS         7552 float
      0.200000E+03      0.000000E+00      0.200000E+03
      0.000000E+00      0.000000E+00      0.200000E+03
      0.197500E+03      0.000000E+00      0.200000E+03
      0.195000E+03      0.000000E+00      0.200000E+03
      0.192500E+03      0.000000E+00      0.200000E+03
      0.190000E+03      0.000000E+00      0.200000E+03
      0.187500E+03      0.000000E+00      0.200000E+03
      0.185000E+03      0.000000E+00      0.200000E+03
      0.182500E+03      0.000000E+00      0.200000E+03
      0.180000E+03      0.000000E+00      0.200000E+03
      0.177500E+03      0.000000E+00      0.200000E+03
      0.175000E+03      0.000000E+00      0.200000E+03
      0.172500E+03      0.000000E+00      0.200000E+03
      0.170000E+03      0.000000E+00      0.200000E+03
      0.167500E+03      0.000000E+00      0.200000E+03
      0.165000E+03      0.000000E+00      0.200000E+03
      0.162500E+03      0.000000E+00      0.200000E+03
      0.160000E+03      0.000000E+00      0.200000E+03
      0.157500E+03      0.000000E+00      0.200000E+03
      0.155000E+03      0.000000E+00      0.200000E+03
      0.152500E+03      0.000000E+00      0.200000E+03
      0.150000E+03      0.000000E+00      0.200000E+03
      0.147500E+03      0.000000E+00      0.200000E+03
      0.145000E+03      0.000000E+00      0.200000E+03
      0.142500E+03      0.000000E+00      0.200000E+03
      0.140000E+03      0.000000E+00      0.200000E+03
      0.137500E+03      0.000000E+00      0.200000E+03
      0.135000E+03      0.000000E+00      0.200000E+03
      0.132500E+03      0.000000E+00      0.200000E+03
      0.130000E+03      0.000000E+00      0.200000E+03
      0.127500E+03      0.000000E+00      0.200000E+03
      0.125000E+03      0.000000E+00      0.200000E+03
      0.122500E+03      0.000000E+00      0.200000E+03
      0.120000E+03      0.000000E+00      0.200000E+03
      0.117500E+03      0.000000E+00      0.200000E+03
      0.115000E+03      0.000000E+00      0.200000E+03
      0.112500E+03      0.000000E+00      0.200000E+03
      0.110000E+03      0.000000E+00      0.200000E+03
      0.107500E+03      0.000000E+00      0.200000E+03
      0.105000E+03      0.000000E+00      0.200000E+03
      0.102500E+03      0.000000E+00      0.200000E+03
      0.100000E+03      0.000000E+00      0.200000E+03
      0.975000E+02      0.000000E+00      0.200000E+03
      0.950000E+02      0.000000E+00      0.200000E+03
      0.925000E+02      0.000000E+00      0.200000E+03
      0.900000E+02      0.000000E+00      0.200000E+03
      0.875000E+02      0.000000E+00      0.200000E+03
      0.850000E+02      0.000000E+00      0.200000E+03
      0.825000E+02      0.000000E+00      0.200000E+03
      0.800000E+02      0.000000E+00      0.200000E+03
      0.775000E+02      0.000000E+00      0.200000E+03
      0.750000E+02      0.000000E+00      0.200000E+03
      0.725000E+02      0.000000E+00      0.200000E+03
      0.700000E+02      0.000000E+00      0.200000E+03
      0.675000E+02      0.000000E+00      0.200000E+03
      0.650000E+02      0.000000E+00      0.200000E+03
      0.625000E+02      0.000000E+00      0.200000E+03
      0.600000E+02      0.000000E+00      0.200000E+03
      0.575000E+02      0.000000E+00      0.200000E+03
      0.550000E+02      0.000000E+00      0.200000E+03
      0.525000E+02      0.000000E+00      0.200000E+03
      0.500000E+02      0.000000E+00      0.200000E+03
      0.475000E+02      0.000000E+00      0.200000E+03
      0.450000E+02      0.000000E+00      0.200000E+03
      0.425000E+02      0.000000E+00      0.200000E+03
      0.400000E+02      0.000000E+00      0.200000E+03
      0.375000E+02      0.000000E+00      0.200000E+03
      0.350000E+02      0.000000E+00      0.200000E+03
      0.325000E+02      0.000000E+00      0.200000E+03
      0.300000E+02      0.000000E+00      0.200000E+03
      0.275000E+02      0.000000E+00      0.200000E+03
      0.250000E+02      0.000000E+00      0.200000E+03
      0.225000E+02      0.000000E+00      0.200000E+03
      0.200000E+02      0.000000E+00      0.200000E+03
      0.175000E+02      0.000000E+00      0.200000E+03
      0.150000E+02      0.000000E+00      0.200000E+03
      0.125000E+02      0.000000E+00      0.200000E+03
      0.100000E+02      0.000000E+00      0.200000E+03
      0.750000E+01      0.000000E+00      0.200000E+03
      0.500000E+01      0.000000E+00      0.200000E+03
      0.250000E+01      0.000000E+00      0.200000E+03
      0.000000E+00      0.000000E+00      0.000000E+00
      0.000000E+00      0.000000E+00      0.197500E+03
      0.000000E+00      0.000000E+00      0.195000E+03
      0.000000E+00      0.000000E+00      0.192500E+03
      0.000000E+00      0.000000E+00      0.190000E+03
      0.000000E+00      0.000000E+00      0.187500E+03
      0.000000E+00      0.000000E+00      0.185000E+03
      0.000000E+00      0.000000E+00      0.182500E+03
      0.000000E+00      0.000000E+00      0.180000E+03
      0.000000E+00      0.000000E+00      0.177500E+03
      0.000000E+00      0.000000E+00      0.175000E+03
      0.000000E+00      0.000000E+00      0.172500E+03
      0.000000E+00      0.000000E+00      0.170000E+03
      0.000000E+00      0.000000E+00      0.167500E+03
      0.000000E+00      0.000000E+00      0.165000E+03
      0.000000E+00      0.000000E+00      0.162500E+03
      0.000000E+00      0.000000E+00      0.160000E+03
      0.000000E+00      0.000000E+00      0.157500E+03
      0.000000E+00      0.000000E+00      0.155000E+03
      0.000000E+00      0.000000E+00      0.152500E+03
      0.000000E+00      0.000000E+00      0.150000E+03
      0.000000E+00      0.000000E+00      0.147500E+03
      0.000000E+00      0.000000E+00      0.145000E+03
      0.000000E+00      0.000000E+00      0.142500E+03
      0.000000E+00      0.000000E+00      0.140000E+03
      0.000000E+00      0.000000E+00      0.137500E+03
      0.000000E+00      0.000000E+00      0.135000E+03
      0.000000E+00      0.000000E+00      0.132500E+03
      0.000000E+00      0.000000E+00      0.130000E+03
      0.000000E+00      0.000000E+00      0.127500E+03
      0.000000E+00      0.000000E+00      0.125000E+03
      0.000000E+00      0.000000E+00      0.122500E+03
      0.000000E+00      0.000000E+00      0.120000E+03
      0.000000E+00      0.000000E+00      0.117500E+03
      0.000000E+00      0.000000E+00      0.115000E+03
      0.000000E+00      0.000000E+00      0.112500E+03
      0.000000E+00      0.000000E+00      0.110000E+03
      0.000000E+00      0.000000E+00      0.107500E+03
      0.000000E+00      0.000000E+00      0.105000E+03
      0.000000E+00      0.000000E+00      0.102500E+03
      0.000000E+00      0.000000E+00      0.100000E+03
      0.000000E+00      0.000000E+00      0.975000E+02
      0.000000E+00      0.000000E+00      0.950000E+02
      0.000000E+00      0.000000E+00      0.925000E+02
      0.000000E+00      0.000000E+00      0.900000E+02
      0.000000E+00      0.000000E+00      0.875000E+02
      0.000000E+00      0.000000E+00      0.850000E+02
      0.000000E+00      0.000000E+00      0.825000E+02
      0.000000E+00      0.000000E+00      0.800000E+02
      0.000000E+00      0.000000E+00      0.775000E+02
      0.000000E+00      0.000000E+00      0.750000E+02
      0.000000E+00      0.000000E+00      0.725000E+02
      0.000000E+00      0.000000E+00      0.700000E+02
      0.000000E+00      0.000000E+00      0.675000E+02
      0.000000E+00      0.000000E+00      0.650000E+02
      0.000000E+00      0.000000E+00      0.625000E+02
      0.000000E+00      0.000000E+00      0.600000E+02
      0.000000E+00      0.000000E+00      0.575000E+02
      0.000000E+00      0.000000E+00      0.550000E+02
      0.000000E+00      0.000000E+00      0.525000E+02
      0.000000E+00      0.000000E+00      0.500000E+02
      0.000000E+00      0.000000E+00      0.475000E+02
      0.000000E+00      0.000000E+00      0.450000E+02
      0.000000E+00      0.000000E+00      0.425000E+02
      0.000000E+00      0.000000E+00      0.400000E+02
      0.000000E+00      0.000000E+00      0.375000E+02
      0.000000E+00      0.000000E+00      0.350000E+02
      0.000000E+00      0.000000E+00      0.325000E+02
      0.000000E+00      0.000000E+00      0.300000E+02
      0.000000E+00      0.000000E+00      0.275000E+02
      0.000000E+00      0.000000E+00      0.250000E+02
      0.000000E+00      0.000000E+00      0.225000E+02
      0.000000E+00      0.000000E+00      0.200000E+02
      0.000000E+00      0.000000E+00      0.175000E+02
      0.000000E+00      0.000000E+00      0.150000E+02
      0.000000E+00      0.000000E+00      0.125000E+02
      0.000000E+00      0.000000E+00      0.100000E+02
      0.000000E+00      0.000000E+00      0.750000E+01
      0.000000E+00      0.000000E+00      0.500000E+01
      0.000000E+00      0.000000E+00      0.250000E+01
      0.200000E+03      0.000000E+00      0.000000E+00
      0.250000E+01      0.000000E+00      0.000000E+00
      0.500000E+01      0.000000E+00      0.000000E+00
      0.750000E+01      0.000000E+00      0.000000E+00
      0.100000E+02      0.000000E+00      0.000000E+00
      0.125000E+02      0.000000E+00      0.000000E+00
      0.150000E+02      0.000000E+00      0.000000E+00
      0.175000E+02      0.000000E+00      0.000000E+00
      0.200000E+02      0.000000E+00      0.000000E+00
      0.225000E+02      0.000000E+00      0.000000E+00
      0.250000E+02      0.000000E+00      0.000000E+00
      0.275000E+02      0.000000E+00      0.000000E+00
      0.300000E+02      0.000000E+00      0.000000E+00
      0.325000E+02      0.000000E+00      0.000000E+00
      0.350000E+02      0.000000E+00      0.000000E+00
      0.375000E+02      0.000000E+00      0.000000E+00
      0.400000E+02      0.000000E+00      0.000000E+00
      0.425000E+02      0.000000E+00      0.000000E+00
      0.450000E+02      0.000000E+00      0.000000E+00
[...]
CELL_DATA        14782
SCALARS cvp float
LOOKUP_TABLE default
   1.1251689049689086E-004
   2.2390756429029164E-002
  -2.3102745569201062E-002
   7.0242675023292539E-002
  -2.8709881562037569E-002
   1.5620832417342419E-002
  -2.7442313779378724E-002
  -2.6565620004786239E-002
  -3.2885870893812418E-002
  -2.5690217842195627E-002
  -2.1800520951403057E-002
  -4.3924937707700049E-002
  -4.4246457752488533E-002
  -2.2804371038642683E-002
   7.2630263500960855E-003
   9.8182135553106897E-002
   1.9667167740688805E-002
  -4.3461939377725092E-002
   3.9580491191227793E-004
   4.4982495528327018E-002
   4.2789448229362433E-003
   5.4695123614424711E-002
  -2.8057069935891417E-002
   3.5294434510330042E-002
   5.0754161229626671E-002
   2.2612610675985228E-002
  -4.9135054725515451E-003
   3.4584771533230835E-002
   5.3924989494955229E-002
   5.0407636027889981E-002
   2.7478144134587403E-002
  -2.9837215023156838E-003
  -3.7311462194831453E-002
  -3.1841366356282194E-002
   3.9686372437161235E-002
  -1.6604689525103061E-002
   3.9854075906847322E-002
   4.9461950306764715E-002
   5.4825467489997642E-002
   1.8655647896245325E-002
   3.6880695724347989E-002
   5.5521271904473243E-002
   6.1642819530076540E-002
   4.8507875091885921E-002
   4.3551985674791793E-003
   3.9414833234054807E-002
   6.1139043849487068E-002
   2.8981359739257251E-002
   5.7565408516655557E-002
   2.3238498263994795E-002
 -0.12462167479072374     
  -2.7113894661723609E-002
   2.3934807445434442E-002
  -4.2071312410453601E-002
   5.7794041068010199E-002
  -3.7173326750011476E-002
   6.6322115682454871E-002
  -1.8440072967709928E-002
   4.6548818579419164E-002
   3.4225067621818997E-003
   9.7643961179517021E-003
  -2.5430595962956163E-002
   4.3987333612177673E-002
   2.0007217209464506E-002
  -3.8931431365423534E-002
   2.3229613473346043E-002
  -1.7498898701034486E-002
   3.5523239666185459E-002
   8.6270292985068803E-003
   2.7661198703634329E-002
 -0.18274656648005097     
   6.6127044709779828E-004
   4.0324918353924530E-002
   6.4202680455955563E-002
   2.6174746230065465E-002
   9.2673793946757947E-003
   1.4399401884143561E-002
   3.1400126481146852E-002
  -4.4905064858436310E-002
  -4.6489865274359943E-002
   8.5509565110804431E-002
   7.5347985650283320E-002
   4.9349927912339400E-002
   6.2061359756900338E-002
  -2.0101218952452090E-002
   7.8684992432795225E-002
   3.7336365082809159E-002
  -1.8688694345017257E-002
   1.8005482588725183E-002
  -1.6309722609189507E-002
  -4.8417003380360243E-002
  -5.0280359458371365E-002
   1.8626333273684514E-002
   1.6876211457610101E-002
   5.8512749739946263E-003
   5.6133959214983473E-002
   7.5188411777228736E-002
  -6.8353053603300129E-002
   5.0346664847792461E-002
   7.1645860980374967E-002
   5.1273496544924885E-002
   2.5534949731125502E-002
   6.0336199630229154E-003
   8.9198347955319526E-003
   2.8028823835841016E-002
  -2.7552201032647522E-002
   6.8245912833512973E-002
   3.6562798636440158E-002
   7.8130614079624378E-003
  -6.5353966831723134E-002
   1.6114241112207307E-002
  -5.2591032340934138E-002
  -6.5554498717674999E-003
  -5.2336071116511181E-002
  -4.0810963295824801E-002
   5.9164253222556321E-002
   5.7961039999942232E-002
  -5.8911964325402549E-005
   8.9760067135132154E-002
  -5.3541241161680832E-002
   9.4230554138729342E-002
  -7.4249632965396370E-002
   7.5018380426881220E-002
  -5.3484069356025635E-002
  -3.3795043109060285E-003
  -4.6377599503552285E-003
   5.1971678706984797E-002
  -1.0258331512116860E-002
   8.9687271813063699E-002
  -4.7297035301244105E-003
   6.9947554362297815E-003
   7.9991247305674987E-002
   4.7551399551841254E-002
 -0.12858326050854785     
   1.5418402808734371E-002
  -6.3789627372295640E-003
  -1.5071590447045816E-002
  -1.3606997803206775E-002
  -6.9128770335379732E-003
   7.0237820713985322E-003
  -2.0623626233172786E-002
  -3.4988009273584156E-002
  -5.8415035774109191E-002
  -8.8135106942347635E-002
 -0.10667277083823609     
  -9.7367730338597913E-002
   7.8642408062270797E-002
   3.0577308282754012E-002
 -0.10693774254906395     
  -9.1477400535411826E-002
  -8.4052575841993576E-002
  -8.2339156126044755E-002
  -3.2876759516715343E-002
  -4.9461313576901741E-002
   7.5536635349857134E-002
   9.3346482357530014E-002
  -9.8650624776336543E-002
   7.4527963509705197E-002
  -4.9850756997244221E-002
  -1.4258223558341540E-003
   1.7087089187360460E-002
  -2.5708001633818707E-002
   7.0566439984287327E-002
  -3.2946260894350245E-002
   8.8439315854655906E-002
  -3.3168622094114197E-002
  -2.1799162005294668E-002
  -1.8687163392848097E-002
   2.5067073300522217E-002
  -1.8873009837931984E-002
  -4.6218876114749917E-002
  -5.1826696969066353E-002
  -4.2347488523241703E-002
  -2.9668400060172451E-002
  -2.3024205151187763E-002
  -2.4981842314303726E-002
  -7.7190492459076887E-003
 -0.17429784761771988     
  -2.3996593550704434E-002
   4.9222456754838752E-002
   5.8611795939845085E-003
   6.1623031430118241E-002
   5.5709222132071759E-002
  -5.4020737725692179E-002
  -1.0736936509179396E-002
   8.3070245372204879E-002
 -0.13595650771215856     
 -0.10101978500043290     
  -5.6023635342519681E-002
  -2.5166079954976217E-002
  -9.7634821080029743E-002
   8.4273430514370543E-002
   6.5022464400368768E-002
   4.0312633238080292E-003
   1.2331112059167138E-002
  -2.7284975436186569E-002
  -3.3381294358176543E-002
 -0.12087959757876267     
 -0.13625418664402628     
 -0.11683879849344993     
  -7.9814095826667722E-002
  -4.6062555624144151E-002
  -2.9365359761954233E-002
  -3.1205311639628690E-002
  -3.2439150104521468E-002
   2.8841667343779496E-002
  -2.0189364901729276E-002
 -0.14296203109565950     
   2.2248356205689726E-002
  0.10759218549867833     
 -0.13155949935129779     
  0.13735070567869465     
   9.3274144025006986E-002
   8.6411588415398879E-002
  -6.9096681363970791E-002
 -0.12126376521497281     
  -6.7407803050095222E-002
   3.0318606834178599E-002
 -0.17663694308301686     
   9.9045626260414604E-002
 -0.16324918425024415     
  0.10245123416927426     
 -0.11844726741772808     
   4.1068469073964553E-002
  -6.7738346528987761E-002
  -5.3972465237054179E-002
 -0.13956958305913370     
  -3.4742682878669065E-002
  -1.0350271475298829E-002
  -7.2290966640695453E-002
  -3.0309695983642439E-002
  0.12787683505320674     
  -1.5648397348520512E-002
  -2.5977631820178815E-002
  -1.6225921062012994E-004
 -0.16894939195544423     
 -0.16930976257033131     
  0.16531678622049475     
   8.9298802765680280E-002
  -3.9870785514654589E-002
  -9.2984771568764280E-003
 -0.11000401922989239     
  0.15367064937303299     
  0.15210090451316688     
 -0.12051256018650049     
  0.11583535354623078     
  -5.4014304971383084E-002
  -8.7641583143004492E-002
   2.2670669124934352E-002
 -0.15421220601343932     
 -0.15727768462041897     
 -0.10596579594501969     
  -3.2239119279182646E-002
   5.5530036574899980E-002
   4.4626693745810207E-002
  -7.9328184051197875E-002
  0.13219259388698240     
  -1.0214184641718860E-002
   4.4883840321873827E-002
 -0.12351898604992334     
  0.10038710487108406     
   1.8597806999611485E-002
 -0.13191402042432257     
   2.9518897736978786E-002
  -8.2783877102468872E-002
 -0.12118924827990485     
  -7.3841257487189144E-002
  0.10358150222367223     
  -1.5893841067623177E-002
  0.13999597494755170     
 -0.10630174634926608     
  0.13059930580040066     
   8.4914343498998165E-002
  -6.3816454375923537E-002
   2.2448808502312387E-002
   3.8696815260764864E-002
  0.13393094941441966     
  0.18351133914226084     
  0.17679747650964389     
   6.0314361691579291E-002
   8.6426955817628978E-004
 -0.23683384192091589     
   3.8016722891460131E-002
  0.25137517574165646     
  0.17125319378434617     
 -0.14095944615490671     
 -0.12580440485618341     
  -1.4549412568735931E-002
  -6.7755189561712961E-002
   4.8688867623525700E-002
  -7.2234102365267894E-002
  0.24674250293689345     
 -0.12576983599423427     
  0.19725791843576684     
  -8.0836668798071623E-002
  0.11800462543067923     
  0.17197890546317535     
  0.26108348334970655     
  0.27386559475227168     
  0.21874283374356132     
   5.3409168404464878E-002
   2.2814870928566655E-003
  0.16371411386278228     
   2.2437963022235961E-002
  0.12393585760509274     
  0.22901977352660757     
 -0.14742435478538155     
   7.9655884598493765E-003
  0.13496472438140716     
  0.22148215682076677     
  0.25068160978329668     
  0.28357116904025931     
 -0.15330003595316455     
  -5.2725100394001689E-002
   9.9604129035245736E-002
  -3.4425668571682770E-002
  0.22720230212343778     
  -3.7704550370827795E-002
  0.27219378430604946     
  0.22125612525658461     
  0.10789374418792425     
  -9.2431338540532558E-003
  -8.2280050135210225E-002
 -0.21717479048933697     
   6.7876183433116230E-002
 -0.20405844085523939     
 -0.13781606980902825     
  0.18617445606963412     
 -0.17953415122432678     
  -4.2385415899665879E-002
  -7.6897094391772142E-002
  0.10711901264763588     
 -0.18591013383661478     
  0.18869074443455594     
 -0.16205652589875524     
  -4.4251437128205104E-002
   4.7684309454798172E-002
 -0.10518622851927500     
 -0.23035025387992675     
 -0.27948146048336159     
 -0.11848714084948919     
   4.0429384337604457E-002
 -0.24700265808950031     
 -0.33507802560242972     
 -0.10365575223990028     
   7.4064512394591109E-002
 -0.26884289820976337     
 -0.14462090453380735     
   8.7215795205040636E-003
  0.18361717836239616     
   8.5031783162469010E-002
  -5.8122641048654056E-003
 -0.11080228174774363     
  0.19060551790402191     
   6.1449568355891104E-002
  0.12011888016012895     
  0.15731387714255335     
  0.22541773247822894     
  0.17659322493978613     
  0.27354364754543242     
  0.10985682208994355     
  0.19175472009760886     
   7.6242160017774591E-002
   1.9765750052136745E-003
   2.1633716677501469E-002
  -1.0613087021983413E-003
  -9.8721406137017910E-009
   1.1313114064202371E-009
  -0.0000000000000000     
   7.2246331611388681E-003
  -3.1657908312544190E-002
  -2.7417097229973868E-002
  -4.4784148198369164E-002
  -3.4778556535697482E-002
  -3.1597007188778170E-002
   7.2336192530041690E-003
  -2.0940155929889057E-002
   1.4373272934878783E-002
   4.6009271506122003E-002
  -4.1386704225783569E-002
  -4.5217895768346617E-002
  -3.8645847575224664E-002
  -5.4355262816810052E-002
  -1.4197233451235847E-002
  -3.2811029638786507E-003
  -3.0603831340006785E-002
  -3.0280327188640065E-002
  -1.4053661693226569E-003
   4.3541006556212262E-003
  -1.3785182043701867E-002
  -2.8093324590252308E-002
   3.9701735839962893E-002
  -2.1616318333240521E-002
  -1.6085457770589159E-002
  -8.8541885236910478E-003
  -1.5863320570452297E-002
  -2.2185347106660456E-002
  -3.0057948809528535E-002
  -1.0585499451938646E-002
  -1.4320001115496861E-002
  -1.7955313718801789E-002
  -2.1422572764849442E-002
  -2.5197091924762327E-002
  -3.6238476054171851E-003
  -2.7213327027671850E-002
  -3.5616149343023096E-002
  -2.9900727648835366E-002
  -4.0937824164643852E-002
  -4.5742307029498705E-002
   4.2523788854629978E-002
  -4.4333573694453281E-002
  -3.8237428404203445E-002
  -7.3596610171271244E-003
  -5.5248991086676979E-003
  -5.8857398946878265E-003
  -1.1028564977470016E-002
  -6.9112195748043982E-003
  -2.8345003047632114E-003
   1.3010727766357500E-003
   4.9614649935654075E-003
  -2.6770287663570039E-002
  -9.3904112983670286E-003
  -1.8235938155854409E-002
  -2.6010917481974233E-002
  -1.0423162353402085E-002
  -1.3964269233195416E-002
  -2.4384678541430112E-002
   7.2022797473115735E-003
   1.3787906807185555E-002
   2.0354900527681540E-002
   2.5952936757321177E-002
   3.0477816903958434E-002
   3.1748863217937587E-002
   3.0548603408476167E-002
   4.1087285699967786E-002
   3.9885166833239595E-002
   3.4636595503229076E-002
   2.3786644489907940E-002
   7.8697262603607005E-003
  -4.4037275041197872E-002
  -3.8799976042557638E-002
  -2.8202788271782443E-002
  -1.5426398837622120E-002
   5.3835364681258102E-003
   3.9151894254393707E-002
   1.1504537441287249E-002
   1.5820107862588525E-002
   1.9596264842663001E-002
  -2.2106987420569553E-002
   2.3528909947808457E-002
  -7.2505036127144453E-003
   2.7463749305970890E-002
   6.2289389601943961E-003
   1.6194738506029968E-002
  -1.3206740063271905E-002
   3.0321235963441426E-002
   2.2430540417649386E-002
   2.6021398370190258E-002
   2.6152397155464503E-002
   1.9068534667611943E-002
   2.9022718713547734E-002
   1.0064105241953940E-002
   3.2145014214884679E-002
  -5.3880919512702490E-005
   3.5621590613286368E-002
  -9.9150806222287041E-003
   3.8698291925658011E-002
  -1.7730602439122820E-002
   4.0319469621907147E-002
  -6.6328543363338016E-003
  -2.0116980396184304E-002
   3.6575790397210151E-002
   3.1117246850492462E-002
   2.3756930586299185E-002
   1.5058443017083856E-002
   9.1738904163533690E-003
   5.7086856265743287E-003
   2.8532103823664626E-002
   2.2443107775666219E-002
   4.2107811161574471E-002
   3.2213575446929148E-002
   2.8787220833629279E-002
  -2.0102839195878207E-002
   4.0160229696313700E-002
   4.3850191475975131E-002
   4.5285505146653193E-002
   4.3895259010654594E-002
   4.2051916450367079E-002
   3.2141772798105553E-002
  -1.0219826801702145E-002
  -2.9511378156055470E-003
   4.0729918329292007E-002
   4.0816433026867396E-002
   1.4223897282980843E-002
   3.0915019058781211E-002
   4.1757406176822477E-002
   4.5978557383811278E-002
   4.5353987262308985E-002
   4.5308573646308692E-002
   4.1146471075166398E-002
   4.2691882847550107E-002
   3.7839860740340375E-002
   4.0620986486076052E-002
   3.4304770422854840E-002
   4.0895534668540685E-002
   4.1686076412252006E-002
   4.1556816629376006E-002
   4.0210523947949023E-002
   3.8136674906706178E-002
   3.6187228880450457E-002
   3.4974605888699599E-002
   3.4474188778286535E-002
   3.3960295410006947E-002
   3.2294293061771749E-002
   4.5084631387434682E-002
   4.1309232878461763E-002
  -3.6462751928056918E-002
  -3.6928362289113920E-002
   3.5450620563208440E-002
   2.7865336551028273E-002
  -1.5669386665467615E-002
   1.8930967891808689E-002
   1.8551927027584000E-002
   2.0268053703766969E-002
   3.2765667303244608E-002
  -6.9234498933858340E-003
   2.1395070409919774E-002
   4.0290061371365385E-002
   5.0492766668165691E-002
   5.2072817203617207E-002
   4.7001883843335104E-002
  -3.3181483397839905E-002
   2.7871473166642048E-002
   2.6176275090986634E-002
   5.2249548538956976E-002
   2.5617081798954708E-002
   5.2415586602176968E-002
   2.4685591691682829E-002
   4.4993012998314937E-002
   2.2736262743596414E-002
   3.4307153632743691E-002
   2.4649130816998661E-002
   4.1829813111398148E-002
   1.8444258485080418E-002
   2.2122774931645720E-002
   1.5711064545189675E-002
   2.7829508858447871E-002
   1.4812589546591063E-002
   3.4705888748715011E-002
   1.3798780716293349E-002
   4.0599041940494913E-002
   1.1594078189696669E-002
   4.3102787389146080E-002
   8.5318731422335779E-003
   4.0417656175599170E-002
   5.9879255637854878E-003
   5.6512454342702110E-003
   8.7168746108718404E-003
   1.5352209926078848E-002
   2.4560342119236602E-002
   3.4359270406660335E-002
   1.9654988418299379E-002
   2.5981421060548585E-002
  -1.8424788921504925E-002
  -1.5398978848473428E-002
  -1.6054798477935148E-002
  -1.1787826228645874E-002
  -2.2692272142540666E-002
  -2.7083569239702482E-002
   5.1171824097191537E-002
   4.9044062274151382E-002
   3.7430130296586470E-002
   6.6839977083513200E-003
  -7.2564538630560949E-003
  -6.9853928186677482E-003
  -9.7344831166598575E-003
  -8.3560158812010597E-003
  -2.6809791513644037E-003
  -1.3829807651682288E-002
  -1.9169676748347273E-002
  -1.8016897904227558E-002
  -1.9302421004397649E-002
  -1.7426420417735410E-002
  -7.4183084769378869E-003
  -1.5665100506525566E-002
   3.7476396150534002E-003
   1.6341614948477953E-002
  -2.2985482160328904E-002
  -2.7318505453933190E-002
   3.6389317232205731E-002
  -2.9385022631906278E-002
  -2.7881179283680925E-002
  -2.2514023491719923E-002
  -2.7153029210908505E-003
  -3.4183904220568988E-002
  -2.9179248254796279E-002
  -7.6781728136969775E-003
  -3.5581846276245881E-002
  -3.7808157040467014E-002
  -3.8021837211021085E-002
  -4.5526372904021520E-002
  -3.2404272326634356E-002
   2.4111280432140510E-002
   2.2433454533949946E-003
  -1.8721888632682655E-002
  -3.6509707803385534E-002
   2.0734028611438193E-002
  -2.1236157501368967E-003
  -2.2370227970534666E-002
  -2.4677659246183360E-002
  -2.5888115199966606E-002
  -3.9525983310830064E-002
  -3.1154292751419198E-002
  -4.3534130887187994E-002
  -3.5711079774220403E-002
  -3.8622285136156037E-002
  -2.9873699673393900E-002
   2.4556915030554433E-002
  -2.2652162236620671E-002
  -3.1988118783981931E-002
  -2.0137273916977345E-002
  -2.7258046527488453E-002
  -2.2486726152160259E-002
  -2.1256803641046706E-002
  -2.7542500688196209E-002
  -1.4019331454842496E-002
  -3.2560340991856888E-002
  -3.5775540802861522E-002
  -3.6964916323969782E-002
  -3.6984605391731540E-002
  -3.6864631427674904E-002
  -5.8795599316563196E-002
  -6.9247368028815190E-002
  -4.1376667255083946E-003
  -4.0543656050388489E-002
  -3.1768623691582558E-002
  -2.4404395387851684E-002
  -2.3174818131379345E-002
  -6.7259463060261229E-003
   2.1047694169898552E-004
   9.3284538154031274E-003
   1.4828222761500217E-002
   1.1230448828819697E-002
  -4.8114349091415015E-002
  -3.0934566330971306E-002
  -6.0321172182484228E-003
  -5.2337465206056158E-002
  -4.4551607206097729E-002
  -3.0506643677899608E-002
  -1.7323856702849163E-002
  -3.1186047807352128E-002
  -1.0028217409373496E-002
  -4.9621224679825424E-002
  -1.4116617114729507E-002
  -1.9531281178051235E-002
  -2.9022941194299736E-002
  -1.2861526140667365E-002
  -2.4697836034649694E-002
  -3.1076124999896244E-003
  -2.6525189368206633E-002
  -1.5786484390204140E-003
  -5.9813035560482113E-003
  -5.0786672995636703E-002
  -1.2029992990136906E-002
  -5.8948890211827858E-002
  -6.1425165443592000E-002
  -1.6866764399048627E-002
  -1.5768606739308799E-002
  -1.5845352538995015E-002
  -2.9917220873127696E-002
  -4.4056850109119750E-002
   4.0028179218252391E-003
  -2.9221759504319031E-002
   9.7711160013595083E-004
   4.4639378480162894E-003
   3.4085330981775401E-002
  -4.5262342695230016E-002
  -4.7773703352060173E-002
  -5.4727489151512196E-002
  -2.4940472022136902E-002
  -3.2835168762839822E-003
  -5.3439900455682629E-002
  -4.4591455048448914E-002
  -2.3090182222026027E-002
  -8.1660046033485423E-003
   1.0407222842738892E-003
  -4.3571633433046059E-003
   1.7994880416221545E-002
   1.3898818988561895E-003
   2.2662062960369801E-002
   1.6289617471801396E-002
   4.7872360140588099E-003
  -1.0694705200308255E-002
  -4.9020846189877267E-003
  -5.0363486590889184E-002
  -8.1041491719957524E-003
   1.1428190434102523E-002
   1.3413677411311088E-002
   7.0783281443475609E-003
   2.2148955824439855E-002
   1.0695462788554017E-003
   1.5726333089275076E-002
   2.0897504026317609E-002
  -1.1897618119669027E-002
   2.8630494279365093E-002
   6.5454617423985322E-003
   3.6154449972594552E-002
   2.8445198736348196E-002
   1.1688181824541521E-002
  -5.0464581704653746E-003
  -1.4300705662646171E-002
   3.2202305939619869E-002
  -3.7153225778855372E-003
   9.4120509957504248E-003
   1.4913993352738020E-002
   2.6734875696121929E-002
  -5.6692477347200856E-003
   2.4966526250419552E-002
  -1.8763946472246870E-002
  -2.0298757977440955E-002
  -1.1567889291234215E-002
   2.6758846226641918E-003
   1.6932862418668888E-002
   2.7026266084464873E-002
   3.0998171450274392E-002
   2.1407190593152423E-002
   3.6015601436220901E-002
   3.2013962373780722E-002
   4.4696089146458139E-003
   1.7789229025263330E-002
   2.6589026143731188E-002
   6.3830663380467362E-004
   1.4075427917589492E-002
   2.7026272844603134E-002
   1.9010378423692319E-002
   2.2682362717987511E-002
   3.3751854525490614E-002
   2.8629439554400480E-002