# vtk DataFile Version 3.1
Mesh with Data
ASCII
DATASET UNSTRUCTURED_GRID
POINTS         7552 float
      0.200000E+03      0.000000E+00      0.200000E+03
      0.000000E+00      0.000000E+00      0.200000E+03
      0.197500E+03      0.000000E+00      0.200000E+03
      0.195000E+03      0.000000E+00      0.200000E+03
      0.192500E+03      0.000000E+00      0.200000E+03
      0.190000E+03      0.000000E+00      0.200000E+03
      0.187500E+03      0.000000E+00      0.200000E+03
      0.185000E+03      0.000000E+00      0.200000E+03
      0.182500E+03      0.000000E+00      0.200000E+03
      0.180000E+03      0.000000E+00      0.200000E+03
      0.177500E+03      0.000000E+00      0.200000E+03
      0.175000E+03      0.000000E+00      0.200000E+03
      0.172500E+03      0.000000E+00      0.200000E+03
      0.170000E+03      0.000000E+00      0.200000E+03
      0.167500E+03      0.000000E+00      0.200000E+03
      0.165000E+03      0.000000E+00      0.200000E+03
      0.162500E+03      0.000000E+00      0.200000E+03
      0.160000E+03      0.000000E+00      0.200000E+03
      0.157500E+03      0.000000E+00      0.200000E+03
      0.155000E+03      0.000000E+00      0.200000E+03
      0.152500E+03      0.000000E+00      0.200000E+03
      0.150000E+03      0.000000E+00      0.200000E+03
      0.147500E+03      0.000000E+00      0.200000E+03
      0.145000E+03      0.000000E+00      0.200000E+03
      0.142500E+03      0.000000E+00      0.200000E+03
      0.140000E+03      0.000000E+00      0.200000E+03
      0.137500E+03      0.000000E+00      0.200000E+03
      0.135000E+03      0.000000E+00      0.200000E+03
      0.132500E+03      0.000000E+00      0.200000E+03
      0.130000E+03      0.000000E+00      0.200000E+03
      0.127500E+03      0.000000E+00      0.200000E+03
      0.125000E+03      0.000000E+00      0.200000E+03
      0.122500E+03      0.000000E+00      0.200000E+03
      0.120000E+03      0.000000E+00      0.200000E+03
      0.117500E+03      0.000000E+00      0.200000E+03
      0.115000E+03      0.000000E+00      0.200000E+03
      0.112500E+03      0.000000E+00      0.200000E+03
      0.110000E+03      0.000000E+00      0.200000E+03
      0.107500E+03      0.000000E+00      0.200000E+03
      0.105000E+03      0.000000E+00      0.200000E+03
      0.102500E+03      0.000000E+00      0.200000E+03
      0.100000E+03      0.000000E+00      0.200000E+03
      0.975000E+02      0.000000E+00      0.200000E+03
      0.950000E+02      0.000000E+00      0.200000E+03
      0.925000E+02      0.000000E+00      0.200000E+03
      0.900000E+02      0.000000E+00      0.200000E+03
      0.875000E+02      0.000000E+00      0.200000E+03
      0.850000E+02      0.000000E+00      0.200000E+03
      0.825000E+02      0.000000E+00      0.200000E+03
      0.800000E+02      0.000000E+00      0.200000E+03
      0.775000E+02      0.000000E+00      0.200000E+03
      0.750000E+02      0.000000E+00      0.200000E+03
      0.725000E+02      0.000000E+00      0.200000E+03
      0.700000E+02      0.000000E+00      0.200000E+03
      0.675000E+02      0.000000E+00      0.200000E+03
      0.650000E+02      0.000000E+00      0.200000E+03
      0.625000E+02      0.000000E+00      0.200000E+03
      0.600000E+02      0.000000E+00      0.200000E+03
      0.575000E+02      0.000000E+00      0.200000E+03
      0.550000E+02      0.000000E+00      0.200000E+03
      0.525000E+02      0.000000E+00      0.200000E+03
      0.500000E+02      0.000000E+00      0.200000E+03
      0.475000E+02      0.000000E+00      0.200000E+03
      0.450000E+02      0.000000E+00      0.200000E+03
      0.425000E+02      0.000000E+00      0.200000E+03
      0.400000E+02      0.000000E+00      0.200000E+03
      0.375000E+02      0.000000E+00      0.200000E+03
      0.350000E+02      0.000000E+00      0.200000E+03
      0.325000E+02      0.000000E+00      0.200000E+03
      0.300000E+02      0.000000E+00      0.200000E+03
      0.275000E+02      0.000000E+00      0.200000E+03
      0.250000E+02      0.000000E+00      0.200000E+03
      0.225000E+02      0.000000E+00      0.200000E+03
      0.200000E+02      0.000000E+00      0.200000E+03
      0.175000E+02      0.000000E+00      0.200000E+03
      0.150000E+02      0.000000E+00      0.200000E+03
      0.125000E+02      0.000000E+00      0.200000E+03
      0.100000E+02      0.000000E+00      0.200000E+03
      0.750000E+01      0.000000E+00      0.200000E+03
      0.500000E+01      0.000000E+00      0.200000E+03
      0.250000E+01      0.000000E+00      0.200000E+03
      0.000000E+00      0.000000E+00      0.000000E+00
      0.000000E+00      0.000000E+00      0.197500E+03
      0.000000E+00      0.000000E+00      0.195000E+03
      0.000000E+00      0.000000E+00      0.192500E+03
      0.000000E+00      0.000000E+00      0.190000E+03
      0.000000E+00      0.000000E+00      0.187500E+03
      0.000000E+00      0.000000E+00      0.185000E+03
      0.000000E+00      0.000000E+00      0.182500E+03
      0.000000E+00      0.000000E+00      0.180000E+03
      0.000000E+00      0.000000E+00      0.177500E+03
      0.000000E+00      0.000000E+00      0.175000E+03
      0.000000E+00      0.000000E+00      0.172500E+03
      0.000000E+00      0.000000E+00      0.170000E+03
      0.000000E+00      0.000000E+00      0.167500E+03
      0.000000E+00      0.000000E+00      0.165000E+03
      0.000000E+00      0.000000E+00      0.162500E+03
      0.000000E+00      0.000000E+00      0.160000E+03
      0.000000E+00      0.000000E+00      0.157500E+03
      0.000000E+00      0.000000E+00      0.155000E+03
      0.000000E+00      0.000000E+00      0.152500E+03
      0.000000E+00      0.000000E+00      0.150000E+03
      0.000000E+00      0.000000E+00      0.147500E+03
      0.000000E+00      0.000000E+00      0.145000E+03
      0.000000E+00      0.000000E+00      0.142500E+03
      0.000000E+00      0.000000E+00      0.140000E+03
      0.000000E+00      0.000000E+00      0.137500E+03
      0.000000E+00      0.000000E+00      0.135000E+03
      0.000000E+00      0.000000E+00      0.132500E+03
      0.000000E+00      0.000000E+00      0.130000E+03
      0.000000E+00      0.000000E+00      0.127500E+03
      0.000000E+00      0.000000E+00      0.125000E+03
      0.000000E+00      0.000000E+00      0.122500E+03
      0.000000E+00      0.000000E+00      0.120000E+03
      0.000000E+00      0.000000E+00      0.117500E+03
      0.000000E+00      0.000000E+00      0.115000E+03
      0.000000E+00      0.000000E+00      0.112500E+03
      0.000000E+00      0.000000E+00      0.110000E+03
      0.000000E+00      0.000000E+00      0.107500E+03
      0.000000E+00      0.000000E+00      0.105000E+03
      0.000000E+00      0.000000E+00      0.102500E+03
      0.000000E+00      0.000000E+00      0.100000E+03
      0.000000E+00      0.000000E+00      0.975000E+02
      0.000000E+00      0.000000E+00      0.950000E+02
      0.000000E+00      0.000000E+00      0.925000E+02
      0.000000E+00      0.000000E+00      0.900000E+02
      0.000000E+00      0.000000E+00      0.875000E+02
      0.000000E+00      0.000000E+00      0.850000E+02
      0.000000E+00      0.000000E+00      0.825000E+02
      0.000000E+00      0.000000E+00      0.800000E+02
      0.000000E+00      0.000000E+00      0.775000E+02
      0.000000E+00      0.000000E+00      0.750000E+02
      0.000000E+00      0.000000E+00      0.725000E+02
      0.000000E+00      0.000000E+00      0.700000E+02
      0.000000E+00      0.000000E+00      0.675000E+02
      0.000000E+00      0.000000E+00      0.650000E+02
      0.000000E+00      0.000000E+00      0.625000E+02
      0.000000E+00      0.000000E+00      0.600000E+02
      0.000000E+00      0.000000E+00      0.575000E+02
      0.000000E+00      0.000000E+00      0.550000E+02
      0.000000E+00      0.000000E+00      0.525000E+02
      0.000000E+00      0.000000E+00      0.500000E+02
      0.000000E+00      0.000000E+00      0.475000E+02
      0.000000E+00      0.000000E+00      0.450000E+02
      0.000000E+00      0.000000E+00      0.425000E+02
      0.000000E+00      0.000000E+00      0.400000E+02
      0.000000E+00      0.000000E+00      0.375000E+02
      0.000000E+00      0.000000E+00      0.350000E+02
      0.000000E+00      0.000000E+00      0.325000E+02
      0.000000E+00      0.000000E+00      0.300000E+02
      0.000000E+00      0.000000E+00      0.275000E+02
      0.000000E+00      0.000000E+00      0.250000E+02
      0.000000E+00      0.000000E+00      0.225000E+02
      0.000000E+00      0.000000E+00      0.200000E+02
      0.000000E+00      0.000000E+00      0.175000E+02
      0.000000E+00      0.000000E+00      0.150000E+02
      0.000000E+00      0.000000E+00      0.125000E+02
      0.000000E+00      0.000000E+00      0.100000E+02
      0.000000E+00      0.000000E+00      0.750000E+01
      0.000000E+00      0.000000E+00      0.500000E+01
      0.000000E+00      0.000000E+00      0.250000E+01
      0.200000E+03      0.000000E+00      0.000000E+00
      0.250000E+01      0.000000E+00      0.000000E+00
      0.500000E+01      0.000000E+00      0.000000E+00
      0.750000E+01      0.000000E+00      0.000000E+00
      0.100000E+02      0.000000E+00      0.000000E+00
      0.125000E+02      0.000000E+00      0.000000E+00
      0.150000E+02      0.000000E+00      0.000000E+00
      0.175000E+02      0.000000E+00      0.000000E+00
      0.200000E+02      0.000000E+00      0.000000E+00
      0.225000E+02      0.000000E+00      0.000000E+00
      0.250000E+02      0.000000E+00      0.000000E+00
      0.275000E+02      0.000000E+00      0.000000E+00
      0.300000E+02      0.000000E+00      0.000000E+00
      0.325000E+02      0.000000E+00      0.000000E+00
      0.350000E+02      0.000000E+00      0.000000E+00
      0.375000E+02      0.000000E+00      0.000000E+00
      0.400000E+02      0.000000E+00      0.000000E+00
      0.425000E+02      0.000000E+00      0.000000E+00
      0.450000E+02      0.000000E+00      0.000000E+00
[...]
CELL_DATA        14782
SCALARS model_vp float
LOOKUP_TABLE default
   1099.8329023797899     
   1100.2647069749751     
   1100.3278290559158     
   1099.9830006462937     
   1099.8081295049772     
   1100.1783695864865     
   1099.7469760616316     
   1099.9518085106147     
   1099.8382271569046     
   1099.7588711509416     
   1099.8962237977971     
   1099.8631757098885     
   1099.8385894886485     
   1099.8668301681503     
   1099.9129660401743     
   1100.4922558269832     
   1100.1518535435923     
   1099.8664370774661     
   1099.8429731032970     
   1099.8407182544061     
   1099.8647440067014     
   1099.9279474887740     
   1099.8139788698745     
   1099.9034901652046     
   1099.8948168540903     
   1099.7740332489066     
   1099.7373526305826     
   1099.8912152754465     
   1099.8938034512557     
   1099.8453462298594     
   1099.7757528110508     
   1099.7315555622599     
   1099.8253630015636     
   1099.9422149972931     
   1100.4794302928090     
   1100.0628835307591     
   1100.4870865192320     
   1100.5479249317300     
   1100.5311374267778     
   1100.4553658179686     
   1100.0676330164167     
   1100.2043407791602     
   1100.3303257584753     
   1100.3957153856811     
   1099.7588387110754     
   1099.8131555421546     
   1099.8787673702759     
   1099.8726135131876     
   1099.9048232455109     
   1099.8860735069370     
   1100.5276619696615     
   1099.7628048788683     
   1099.8637726235693     
   1099.8390144749894     
   1099.9135341665346     
   1099.9637202370927     
   1099.9045609675916     
   1100.0921769319962     
   1099.8470304838681     
   1100.1844209829212     
   1099.7913161540364     
   1099.7907380073157     
   1100.0143450556182     
   1100.2465173612152     
   1099.9968240466176     
   1100.3150458265807     
   1100.1332914875532     
   1100.4202331179213     
   1100.2278532961293     
   1100.2565750205013     
   1098.8761154152821     
   1099.5057530659888     
   1100.3886934128668     
   1100.5099658148845     
   1100.1079390507687     
   1099.9960742042335     
   1099.8504216436697     
   1099.9438477403171     
   1100.0972669236737     
   1099.9548873171138     
   1100.0725438545696     
   1099.9628720520514     
   1100.0647716501896     
   1099.9344633243079     
   1099.8805044393218     
   1099.9896409292871     
   1100.3327575594033     
   1100.2561778973170     
   1100.3696432896804     
   1099.9377724693954     
   1100.0100520808148     
   1100.1566388220795     
   1098.6541513727341     
   1099.9696609534519     
   1099.9433869210184     
   1100.4887930664133     
   1100.4175943692132     
   1099.3410909866993     
   1100.2408295405291     
   1100.2695606986829     
   1100.0937395816002     
   1099.9407290215945     
   1099.8480813353842     
   1099.8902649006063     
   1099.9963438107582     
   1098.5943346979720     
   1100.2188140955375     
   1100.0529683026273     
   1100.6150283736165     
   1100.2714740266765     
   1100.2408706443425     
   1100.2771097560349     
   1100.0616209475443     
   1100.1248476385529     
   1100.4606629223206     
   1100.1232769281835     
   1100.6678480350502     
   1100.1247695874852     
   1100.5973516891825     
   1100.1801127520596     
   1100.4294198295474     
   1100.3204966291655     
   1100.2176240046758     
   1100.5127025246306     
   1100.6770108459023     
   1099.7335594500112     
   1100.7386316334573     
   1099.6609897525896     
   1100.6684412597956     
   1099.6320433167084     
   1099.6482233085565     
   1100.2704505806441     
   1100.0630874872018     
   1099.4966611997097     
   1099.9012192640773     
   1099.7819572014325     
   1099.6849732012504     
   1099.5976664736752     
   1099.5302408465900     
   1099.5111665737884     
   1099.3150595790953     
   1100.1403516283249     
   1100.1332154947263     
   1099.9629792122935     
   1099.7264996908095     
   1100.5705538552306     
   1100.7330156652433     
   1100.8093921586735     
   1100.4265263159505     
   1100.3891829049307     
   1100.6561916870128     
   1100.5683220248150     
   1100.7382556845671     
   1100.3194557975983     
   1098.7151932569982     
   1100.5288653460509     
   1100.4096172546795     
   1100.2726496956448     
   1100.7343145292641     
   1099.9242100399551     
   1100.8059320292120     
   1099.8804228265378     
   1100.7250476438471     
   1099.8645632007274     
   1100.5032418109122     
   1100.2331808643637     
   1099.6762490846324     
   1099.4900491122944     
   1099.9752344452336     
   1099.8476803095843     
   1099.8454495142967     
   1099.9086270754203     
   1099.9421414670185     
   1099.8698217111639     
   1099.6798960935535     
   1099.4309875839856     
   1098.7175392625493     
   1099.1585791775897     
   1100.2823964559507     
   1100.5470662279608     
   1099.7144997633263     
   1100.0330931575111     
   1100.6299316916406     
   1100.4276870790588     
   1100.7179199180298     
   1100.3784788584821     
   1100.4896193675490     
   1100.5876509840043     
   1099.5360935845549     
   1100.6371519093616     
   1099.5504752562624     
   1100.2877846082863     
   1099.9186181447130     
   1099.5613096251730     
   1099.7399736685661     
   1099.9598664825128     
   1099.6530872047624     
   1099.3297965227177     
   1099.5164222737383     
   1099.8136474597402     
   1100.0947676306560     
   1100.2433431958559     
   1100.1965475239299     
   1099.9679357603625     
   1099.6684858461758     
   1099.5509743917398     
   1099.8938684248851     
   1098.9097813421986     
   1099.2786144668482     
   1099.7562934386951     
   1100.4196242204650     
   1099.4051553952363     
   1100.0750203610510     
   1099.6860775252433     
   1100.3102967264224     
   1099.5440155070073     
   1098.9885676292406     
   1100.2109244373646     
   1099.0545443186911     
   1099.9615356924783     
   1099.3579755463895     
   1099.5767857546341     
   1099.7170544741646     
   1099.1603520126398     
   1100.0325025774341     
   1098.8513893213628     
   1098.7515178313026     
   1100.1796294792196     
   1099.0957176883778     
   1099.8047467741267     
   1100.0371770253382     
   1098.8757312075143     
   1100.1774610369828     
   1100.2168002656470     
   1099.6032770391464     
   1098.9903687700778     
   1098.7045310800822     
   1098.9963599639386     
   1099.0002837059758     
   1098.6156350038211     
   1098.6833785314084     
   1098.5755716238405     
   1099.3498967889579     
   1101.8321357645273     
   1099.2946908652982     
   1098.9648878110213     
   1099.5058431215525     
   1098.5501993002724     
   1099.6528670242562     
   1098.6966908307584     
   1099.0161054934758     
   1099.3476952848566     
   1099.5416267908213     
   1099.4571413785491     
   1099.4078940017621     
   1100.2559574827617     
   1099.4405304274524     
   1098.4365359648743     
   1098.4612428587679     
   1099.3052463643774     
   1099.9431746333671     
   1099.9565197162103     
   1099.1916878763163     
   1098.9777548874974     
   1099.1228005389505     
   1098.7878902845880     
   1099.6553892504705     
   1098.8042045999466     
   1098.7065126398359     
   1099.6275056290010     
   1098.8766993910538     
   1099.1888530760289     
   1098.8767286426257     
   1099.8380049391005     
   1098.8720585872900     
   1100.2385260672518     
   1100.3068628215854     
   1099.9912874250508     
   1099.4269803469158     
   1098.5974718603541     
   1099.9911619854754     
   1101.8989598971102     
   1100.8854578718726     
   1100.3855327865861     
   1101.0172215029647     
   1099.8946879892244     
   1100.4476080227325     
   1101.0791885547521     
   1100.1468458557081     
   1100.7166142363105     
   1099.2720729808582     
   1100.9026814163135     
   1099.6694077472632     
   1099.6344032617783     
   1100.2712411450227     
   1098.9089884553450     
   1101.2794357071648     
   1101.2904644002585     
   1100.8951771257157     
   1100.2104560356554     
   1098.8100740817829     
   1098.5018680354733     
   1101.2606995977696     
   1100.0375154745980     
   1100.5843954780871     
   1101.1309131399478     
   1099.9836221474802     
   1101.5715174616296     
   1101.5697238489718     
   1101.7225782088358     
   1101.7444038633614     
   1101.5660538018972     
   1100.4946687405366     
   1101.1126569630565     
   1101.6229007383590     
   1099.5572414081039     
   1101.8356349157748     
   1099.2144615051873     
   1101.7061885429457     
   1101.3485819909590     
   1100.9366515871750     
   1100.5753246154309     
   1099.9404453185234     
   1101.2568938422185     
   1101.0055187779512     
   1100.4948059319659     
   1101.0476334295292     
   1101.3577769621986     
   1100.9536231189986     
   1101.4684223277000     
   1100.8940195239188     
   1101.7572082461247     
   1101.0430790451028     
   1101.6633466435994     
   1101.2934849550197     
   1101.0694675173486     
   1100.8334288537087     
   1100.6924177041078     
   1100.9597046957242     
   1101.4753040853323     
   1101.9553837923634     
   1101.6377637864496     
   1102.7986400220977     
   1101.8701298500637     
   1103.1974078515650     
   1102.9739742127074     
   1102.5203549277301     
   1103.4054231234081     
   1103.6064727809116     
   1103.1787592050384     
   1103.8559208121444     
   1103.4382052209892     
   1102.3287292514435     
   1103.5583326871410     
   1102.6357681979096     
   1103.4730869567711     
   1103.5883892341499     
   1103.1032403848526     
   1102.3438477834825     
   1102.1634624118140     
   1102.0239935071033     
   1101.0503978853174     
   1101.0050469003761     
   1099.9619899394854     
   1099.9698738652560     
   1099.9895705919307     
   1099.9999998895137     
   1099.9999999067236     
   1100.0000000000000     
   1099.9952785493315     
   1100.0457800973218     
   1100.0074049727289     
   1099.9576629212811     
   1099.9272848182575     
   1100.0245765616639     
   1099.9887508233915     
   1099.9948954141701     
   1100.0580269245013     
   1100.1166993140564     
   1099.9654388074741     
   1099.9570333351287     
   1099.9713803998127     
   1099.9701902018962     
   1099.9861368528771     
   1100.0673587381311     
   1100.0493701385922     
   1100.0699568399623     
   1100.0057291633993     
   1100.0009659138063     
   1099.9037710449099     
   1099.9931065466037     
   1100.0725007866488     
   1100.0797066802527     
   1099.8695885290006     
   1099.9793181137914     
   1099.9926539298292     
   1099.9894499457771     
   1099.9786436105394     
   1099.9605817826898     
   1099.9629856763058     
   1099.9691494540718     
   1099.9768698425810     
   1099.9825401569774     
   1099.9999292421294     
   1099.9959444820256     
   1099.9760142993537     
   1099.9826401568976     
   1099.9626191895777     
   1099.9498867187453     
   1100.0321478561343     
   1099.9514821117029     
   1099.9635633602327     
   1099.9622605683423     
   1099.9669389252369     
   1099.9729918300400     
   1099.9894676378451     
   1099.9837376396420     
   1099.9795088516419     
   1099.9791537924266     
   1099.9827534695089     
   1100.0688682873965     
   1100.0109682824545     
   1100.0190163002230     
   1100.0318149835850     
   1100.0715187703838     
   1100.0770625130185     
   1100.0916935868379     
   1100.0356744475282     
   1100.0462579440800     
   1100.0566197558546     
   1100.0683272639917     
   1100.0813270785493     
   1100.0426724505060     
   1100.0312209355545     
   1100.0234945401289     
   1100.0309729217163     
   1100.0291670460995     
   1100.0109397298907     
   1099.9774566722688     
   1099.9305776624703     
   1099.9367026013633     
   1099.9565119043546     
   1099.9807107491208     
   1100.0093912386906     
   1100.0226893612160     
   1100.0099124762526     
   1100.0064985791414     
   1100.0050463809712     
   1099.9510400885267     
   1100.0091173960511     
   1099.9801070713870     
   1100.0187771892088     
   1100.0038178934174     
   1100.0162735383824     
   1099.9049358382049     
   1100.0504185836571     
   1100.0177477359953     
   1100.0537314549779     
   1100.0139556772460     
   1100.0538037745425     
   1100.0122037790477     
   1100.0530831166648     
   1100.0171920111136     
   1100.0540762767703     
   1100.0294632845598     
   1100.0587280851046     
   1100.0458222362611     
   1100.0677425062127     
   1100.0614680725760     
   1099.7854510691354     
   1100.0922099802192     
   1100.0773063306438     
   1100.0764867558892     
   1100.0723949976141     
   1100.0681295120155     
   1099.8663384594390     
   1100.0661038973512     
   1100.0316654055923     
   1100.0138207415084     
   1099.9598915023307     
   1100.4138522658504     
   1100.3086438728897     
   1099.8435121055952     
   1100.0272283184597     
   1100.1048596545509     
   1100.0754594061295     
   1100.0531142995833     
   1100.0323734199924     
   1100.0114234696432     
   1099.9383866491962     
   1100.0065416896582     
   1100.0169665878575     
   1100.0191942572230     
   1099.9761680950812     
   1100.0151588325725     
   1100.0367336902427     
   1100.0385242087652     
   1100.0938539984618     
   1100.0282062366584     
   1100.1076923350702     
   1100.0176105825306     
   1100.1033988535121     
   1100.0162326950694     
   1100.0938254562529     
   1100.0474627504038     
   1100.0708886556822     
   1100.0914808578871     
   1100.1050766511287     
   1100.1102646472325     
   1100.1077702457037     
   1100.0990112941329     
   1100.0854503379699     
   1100.0685558335906     
   1100.0500264436951     
   1099.9269588005095     
   1099.8939047565316     
   1099.7814641920272     
   1099.7936891231275     
   1099.8595042475488     
   1099.8899970833663     
   1100.0359082443645     
   1100.0799751981431     
   1100.0859885983332     
   1100.0870621433976     
   1100.0964624064468     
   1100.0132758375196     
   1100.0468280577340     
   1100.0258181116792     
   1100.0553948696088     
   1100.0583888597241     
   1100.0425810895003     
   1100.0278756775197     
   1100.0142457932029     
   1100.0292461611566     
   1100.0665907201392     
   1100.0499460734054     
   1100.0713019496225     
   1100.0690539881355     
   1100.0533659546409     
   1100.0818081392204     
   1100.0286811943531     
   1100.0116222414476     
   1099.9119669557017     
   1100.0094318493484     
   1100.0693535413977     
   1100.0211629132900     
   1100.0535540927815     
   1100.0395894771571     
   1100.0322818328054     
   1100.0560625443766     
   1100.0060821142436     
   1100.0653304733355     
   1099.9766503875746     
   1100.0668282822980     
   1099.9462760834861     
   1100.0627506158339     
   1100.0555652951305     
   1100.0461170977674     
   1100.0331624060254     
   1100.0147339775231     
   1099.9899913624536     
   1099.8423573818800     
   1099.8180972371765     
   1100.0194291068754     
   1099.9677946065387     
   1100.0133561623470     
   1100.0300527853676     
   1100.0406433157752     
   1100.0427815159555     
   1100.0904788899609     
   1100.1010923296212     
   1100.0808314480605     
   1100.0179330792612     
   1100.0283992346845     
   1100.0398951725124     
   1099.9912584082992     
   1100.0404850239065     
   1100.0229691592915     
   1100.0072700705391     
   1099.9958157158051     
   1100.0124567182379     
   1099.9806435566145     
   1100.0274932948284     
   1099.9548575669487     
   1100.0383481830038     
   1099.9388002103424     
   1099.9173141630893     
   1099.9946574523615     
   1099.9690054730740     
   1099.8304521838502     
   1099.9474603047283     
   1099.9311057009818     
   1099.9176655526810     
   1099.8869741472349     
   1099.7748962241340     
   1099.7760590810924     
   1100.0144604206296     
   1099.8414825044592     
   1099.8568015482037     
   1099.8759347103503     
   1099.9896633869400     
   1100.0079853327122     
   1100.1268914474799     
   1100.0805913102124     
   1100.0331365699410     
   1100.0101809289686     
   1100.1406036968833     
   1100.0909912361647     
   1100.0177761931870     
   1100.0369828970240     
   1099.9802145473832     
   1100.0059008295673     
   1099.9387181565357     
   1100.0055998443918     
   1099.9027120818932     
   1100.0250750992373     
   1100.0441478437974     
   1100.2267432666147     
   1100.0456029008526     
   1099.8269564603979     
   1100.0232785294500     
   1099.8126076658441     
   1099.9825072611525     
   1099.7995742608516     
   1099.9354904058287     
   1099.7898424870068     
   1099.8939021663339     
   1099.8631128996135     
   1099.8416230106450     
   1099.8248644562443     
   1099.8090165248902     
   1099.7943961827025     
   1099.8023032288140     
   1099.9179378033496     
   1099.7874259267069     
   1099.8064236073014     
   1099.8471136267926     
   1099.8642945403255     
   1099.8667866837066     
   1099.8842651161788     
   1099.9264204165270     
   1099.9762156550348     
   1100.0101622619516     
   1099.9947437697945     
   1100.0408561791166     
   1100.1074950881025     
   1099.9855385507415     
   1100.0064175728767     
   1100.0349032946549     
   1100.0476019228108     
   1100.0416737484520     
   1100.0319843304962     
   1099.9863891269943     
   1099.9402884545952     
   1099.8950765857990     
   1100.0222157999053     
   1100.0412447787867     
   1099.8361935070909     
   1100.0303827245402     
   1099.8236835200305     
   1099.9916540009858     
   1099.9410183871637     
   1099.7739707258404     
   1099.8967082836471     
   1099.7732199654668     
   1099.7876833754292     
   1099.8597002233241     
   1099.8586822157488     
   1099.8555662755289     
   1099.8234475622994     
   1099.8036469801750     
   1099.9705331689979     
   1099.9167509712915     
   1099.9566321969346     
   1099.9565927101610     
   1099.8558100212729     
   1099.9441396184457     
   1099.9674645371119     
   1099.9326542735116     
   1099.9811435101531     
   1100.0111852889806     
   1099.9125893908267     
   1099.9171914598367     
   1099.9543838847690     
   1099.8772861800669     
   1099.9890925799884     
   1099.9061775896653     
   1099.9931423277012     
   1099.9374491181102     
   1099.9615119044506     
   1099.9108759920380     
   1099.8677865139855     
   1099.9399594085464     
   1099.8531633555931     
   1099.9011152954101     
   1099.8729121788081     
   1100.0131300310857     
   1100.0343981489630     
   1100.0324663039567     
   1100.2882620750524     
   1100.2038088824727     
   1100.2155484248076     
   1100.1495300587683     
   1100.0696758951090     
   1099.9539129648547     
   1099.9389035668389     
   1099.9270594361299     
   1099.8725873126677     
   1099.8222758640065     
   1099.8056269290221     
   1099.8355083759645     
   1099.9349209104930     
   1099.9938501598579     
   1100.0804869399822     
   1099.7997338199698     
   1100.1942894978629     
   1099.7777301011206     
   1100.2148901541570     
   1099.8073599832614     
   1099.8834877311713     
   1099.9850083527294     
   1100.0881119758287     
   1100.1758882157603     
   1100.2412495792689     
   1100.2843827586489     
   1100.3167074555222     
   1100.4329866944850     
   1100.3769047670000     
   1100.1710794107703     
   1100.2511473486941     
   1100.3168883701699     
   1100.1617141353274     
   1100.2328863495970     
   1100.3454716708802     
   1100.2247945523211     
   1100.2228166784782     
   1100.2286204342511     
   1100.1792088456798     