# vtk DataFile Version 3.1
Mesh with Data
ASCII
DATASET UNSTRUCTURED_GRID
POINTS         7552 float
      0.200000E+03      0.000000E+00      0.200000E+03
      0.000000E+00      0.000000E+00      0.200000E+03
      0.197500E+03      0.000000E+00      0.200000E+03
      0.195000E+03      0.000000E+00      0.200000E+03
      0.192500E+03      0.000000E+00      0.200000E+03
      0.190000E+03      0.000000E+00      0.200000E+03
      0.187500E+03      0.000000E+00      0.200000E+03
      0.185000E+03      0.000000E+00      0.200000E+03
      0.182500E+03      0.000000E+00      0.200000E+03
      0.180000E+03      0.000000E+00      0.200000E+03
      0.177500E+03      0.000000E+00      0.200000E+03
      0.175000E+03      0.000000E+00      0.200000E+03
      0.172500E+03      0.000000E+00      0.200000E+03
      0.170000E+03      0.000000E+00      0.200000E+03
      0.167500E+03      0.000000E+00      0.200000E+03
      0.165000E+03      0.000000E+00      0.200000E+03
      0.162500E+03      0.000000E+00      0.200000E+03
      0.160000E+03      0.000000E+00      0.200000E+03
      0.157500E+03      0.000000E+00      0.200000E+03
      0.155000E+03      0.000000E+00      0.200000E+03
      0.152500E+03      0.000000E+00      0.200000E+03
      0.150000E+03      0.000000E+00      0.200000E+03
      0.147500E+03      0.000000E+00      0.200000E+03
      0.145000E+03      0.000000E+00      0.200000E+03
      0.142500E+03      0.000000E+00      0.200000E+03
      0.140000E+03      0.000000E+00      0.200000E+03
      0.137500E+03      0.000000E+00      0.200000E+03
      0.135000E+03      0.000000E+00      0.200000E+03
      0.132500E+03      0.000000E+00      0.200000E+03
      0.130000E+03      0.000000E+00      0.200000E+03
      0.127500E+03      0.000000E+00      0.200000E+03
      0.125000E+03      0.000000E+00      0.200000E+03
      0.122500E+03      0.000000E+00      0.200000E+03
      0.120000E+03      0.000000E+00      0.200000E+03
      0.117500E+03      0.000000E+00      0.200000E+03
      0.115000E+03      0.000000E+00      0.200000E+03
      0.112500E+03      0.000000E+00      0.200000E+03
      0.110000E+03      0.000000E+00      0.200000E+03
      0.107500E+03      0.000000E+00      0.200000E+03
      0.105000E+03      0.000000E+00      0.200000E+03
      0.102500E+03      0.000000E+00      0.200000E+03
      0.100000E+03      0.000000E+00      0.200000E+03
      0.975000E+02      0.000000E+00      0.200000E+03
      0.950000E+02      0.000000E+00      0.200000E+03
      0.925000E+02      0.000000E+00      0.200000E+03
      0.900000E+02      0.000000E+00      0.200000E+03
      0.875000E+02      0.000000E+00      0.200000E+03
      0.850000E+02      0.000000E+00      0.200000E+03
      0.825000E+02      0.000000E+00      0.200000E+03
      0.800000E+02      0.000000E+00      0.200000E+03
      0.775000E+02      0.000000E+00      0.200000E+03
      0.750000E+02      0.000000E+00      0.200000E+03
      0.725000E+02      0.000000E+00      0.200000E+03
      0.700000E+02      0.000000E+00      0.200000E+03
      0.675000E+02      0.000000E+00      0.200000E+03
      0.650000E+02      0.000000E+00      0.200000E+03
      0.625000E+02      0.000000E+00      0.200000E+03
      0.600000E+02      0.000000E+00      0.200000E+03
      0.575000E+02      0.000000E+00      0.200000E+03
      0.550000E+02      0.000000E+00      0.200000E+03
      0.525000E+02      0.000000E+00      0.200000E+03
      0.500000E+02      0.000000E+00      0.200000E+03
      0.475000E+02      0.000000E+00      0.200000E+03
      0.450000E+02      0.000000E+00      0.200000E+03
      0.425000E+02      0.000000E+00      0.200000E+03
      0.400000E+02      0.000000E+00      0.200000E+03
      0.375000E+02      0.000000E+00      0.200000E+03
      0.350000E+02      0.000000E+00      0.200000E+03
      0.325000E+02      0.000000E+00      0.200000E+03
      0.300000E+02      0.000000E+00      0.200000E+03
      0.275000E+02      0.000000E+00      0.200000E+03
      0.250000E+02      0.000000E+00      0.200000E+03
      0.225000E+02      0.000000E+00      0.200000E+03
      0.200000E+02      0.000000E+00      0.200000E+03
      0.175000E+02      0.000000E+00      0.200000E+03
      0.150000E+02      0.000000E+00      0.200000E+03
      0.125000E+02      0.000000E+00      0.200000E+03
      0.100000E+02      0.000000E+00      0.200000E+03
      0.750000E+01      0.000000E+00      0.200000E+03
      0.500000E+01      0.000000E+00      0.200000E+03
      0.250000E+01      0.000000E+00      0.200000E+03
      0.000000E+00      0.000000E+00      0.000000E+00
      0.000000E+00      0.000000E+00      0.197500E+03
      0.000000E+00      0.000000E+00      0.195000E+03
      0.000000E+00      0.000000E+00      0.192500E+03
      0.000000E+00      0.000000E+00      0.190000E+03
      0.000000E+00      0.000000E+00      0.187500E+03
      0.000000E+00      0.000000E+00      0.185000E+03
      0.000000E+00      0.000000E+00      0.182500E+03
      0.000000E+00      0.000000E+00      0.180000E+03
      0.000000E+00      0.000000E+00      0.177500E+03
      0.000000E+00      0.000000E+00      0.175000E+03
      0.000000E+00      0.000000E+00      0.172500E+03
      0.000000E+00      0.000000E+00      0.170000E+03
      0.000000E+00      0.000000E+00      0.167500E+03
      0.000000E+00      0.000000E+00      0.165000E+03
      0.000000E+00      0.000000E+00      0.162500E+03
      0.000000E+00      0.000000E+00      0.160000E+03
      0.000000E+00      0.000000E+00      0.157500E+03
      0.000000E+00      0.000000E+00      0.155000E+03
      0.000000E+00      0.000000E+00      0.152500E+03
      0.000000E+00      0.000000E+00      0.150000E+03
      0.000000E+00      0.000000E+00      0.147500E+03
      0.000000E+00      0.000000E+00      0.145000E+03
      0.000000E+00      0.000000E+00      0.142500E+03
      0.000000E+00      0.000000E+00      0.140000E+03
      0.000000E+00      0.000000E+00      0.137500E+03
      0.000000E+00      0.000000E+00      0.135000E+03
      0.000000E+00      0.000000E+00      0.132500E+03
      0.000000E+00      0.000000E+00      0.130000E+03
      0.000000E+00      0.000000E+00      0.127500E+03
      0.000000E+00      0.000000E+00      0.125000E+03
      0.000000E+00      0.000000E+00      0.122500E+03
      0.000000E+00      0.000000E+00      0.120000E+03
      0.000000E+00      0.000000E+00      0.117500E+03
      0.000000E+00      0.000000E+00      0.115000E+03
      0.000000E+00      0.000000E+00      0.112500E+03
      0.000000E+00      0.000000E+00      0.110000E+03
      0.000000E+00      0.000000E+00      0.107500E+03
      0.000000E+00      0.000000E+00      0.105000E+03
      0.000000E+00      0.000000E+00      0.102500E+03
      0.000000E+00      0.000000E+00      0.100000E+03
      0.000000E+00      0.000000E+00      0.975000E+02
      0.000000E+00      0.000000E+00      0.950000E+02
      0.000000E+00      0.000000E+00      0.925000E+02
      0.000000E+00      0.000000E+00      0.900000E+02
      0.000000E+00      0.000000E+00      0.875000E+02
      0.000000E+00      0.000000E+00      0.850000E+02
      0.000000E+00      0.000000E+00      0.825000E+02
      0.000000E+00      0.000000E+00      0.800000E+02
      0.000000E+00      0.000000E+00      0.775000E+02
      0.000000E+00      0.000000E+00      0.750000E+02
      0.000000E+00      0.000000E+00      0.725000E+02
      0.000000E+00      0.000000E+00      0.700000E+02
      0.000000E+00      0.000000E+00      0.675000E+02
      0.000000E+00      0.000000E+00      0.650000E+02
      0.000000E+00      0.000000E+00      0.625000E+02
      0.000000E+00      0.000000E+00      0.600000E+02
      0.000000E+00      0.000000E+00      0.575000E+02
      0.000000E+00      0.000000E+00      0.550000E+02
      0.000000E+00      0.000000E+00      0.525000E+02
      0.000000E+00      0.000000E+00      0.500000E+02
      0.000000E+00      0.000000E+00      0.475000E+02
      0.000000E+00      0.000000E+00      0.450000E+02
      0.000000E+00      0.000000E+00      0.425000E+02
      0.000000E+00      0.000000E+00      0.400000E+02
      0.000000E+00      0.000000E+00      0.375000E+02
      0.000000E+00      0.000000E+00      0.350000E+02
      0.000000E+00      0.000000E+00      0.325000E+02
      0.000000E+00      0.000000E+00      0.300000E+02
      0.000000E+00      0.000000E+00      0.275000E+02
      0.000000E+00      0.000000E+00      0.250000E+02
      0.000000E+00      0.000000E+00      0.225000E+02
      0.000000E+00      0.000000E+00      0.200000E+02
      0.000000E+00      0.000000E+00      0.175000E+02
      0.000000E+00      0.000000E+00      0.150000E+02
      0.000000E+00      0.000000E+00      0.125000E+02
      0.000000E+00      0.000000E+00      0.100000E+02
      0.000000E+00      0.000000E+00      0.750000E+01
      0.000000E+00      0.000000E+00      0.500000E+01
      0.000000E+00      0.000000E+00      0.250000E+01
      0.200000E+03      0.000000E+00      0.000000E+00
      0.250000E+01      0.000000E+00      0.000000E+00
      0.500000E+01      0.000000E+00      0.000000E+00
      0.750000E+01      0.000000E+00      0.000000E+00
      0.100000E+02      0.000000E+00      0.000000E+00
      0.125000E+02      0.000000E+00      0.000000E+00
      0.150000E+02      0.000000E+00      0.000000E+00
      0.175000E+02      0.000000E+00      0.000000E+00
      0.200000E+02      0.000000E+00      0.000000E+00
      0.225000E+02      0.000000E+00      0.000000E+00
      0.250000E+02      0.000000E+00      0.000000E+00
      0.275000E+02      0.000000E+00      0.000000E+00
      0.300000E+02      0.000000E+00      0.000000E+00
      0.325000E+02      0.000000E+00      0.000000E+00
      0.350000E+02      0.000000E+00      0.000000E+00
      0.375000E+02      0.000000E+00      0.000000E+00
      0.400000E+02      0.000000E+00      0.000000E+00
      0.425000E+02      0.000000E+00      0.000000E+00
      0.450000E+02      0.000000E+00      0.000000E+00
[...]
CELL_DATA        14782
SCALARS cvp float
LOOKUP_TABLE default
  -2.8034638525449077E-002
   6.5318918925538955E-002
  -2.4274283094800935E-002
  0.10197087382607062     
  -7.8158089612969023E-002
   7.2136567000772048E-002
  -1.7209764549402609E-002
  -5.3271051640196965E-002
  -5.2220309409904131E-002
  -2.6439708919449939E-002
  -7.8843287789319261E-002
  -9.1503731848523090E-002
  -8.7095276649992476E-002
  -7.8626821155385579E-002
  -3.9588911445203392E-002
   9.9286636815471063E-002
   8.7194931247845400E-002
  -3.0356425741358557E-002
  -4.5055578619257554E-002
   7.2180010546909812E-002
  -4.2566136545503210E-002
   3.9454181863809647E-002
  -7.6696002083466844E-002
   1.0610011138362220E-002
   5.5824563547267524E-002
   5.4807366723774682E-002
   1.5235037493194915E-002
   8.5334770491070286E-003
   5.7985102272873137E-002
   7.9469228215697491E-002
   6.5309947672944277E-002
   2.6078921992781910E-002
  -4.4866885817868102E-002
  -4.6904492569796674E-002
  0.13498975476380198     
  -2.4929914932999071E-002
  0.13399871140349895     
  0.13399149213964881     
  0.10743235627556982     
   2.5111202573847979E-002
   8.5653841472718970E-002
  0.11047482502023791     
  0.10968552478088552     
   8.0398273960884739E-002
   4.5039067646261310E-002
   8.2670158558124318E-002
   8.8870809650768434E-002
  -4.5593286705708893E-005
   5.6437014256341303E-002
   6.7275007712757934E-002
  -9.4923674654039933E-002
  -1.6069679243806614E-003
  -6.3687575734364156E-003
  -3.3374970181241512E-002
   5.2548789226534692E-002
  -3.6761383742225200E-002
   9.0768947347410339E-002
  -1.2961634402590971E-002
   8.9533600409458264E-002
   2.5610897700971375E-002
   5.3228516404947121E-002
   4.4995506799112251E-003
   4.5193894906847554E-002
   9.7439262857793280E-002
  -3.5201983091673349E-002
   9.4964047491809422E-002
  -1.0102513013786084E-002
   9.7950654739527965E-002
   3.1483079284352990E-002
   7.1265226275513072E-002
 -0.21257541392261067     
  -4.3721474235589537E-002
   7.2928970385198022E-002
   9.2513706806353402E-002
   6.6763925800375559E-003
  -2.7486320095903693E-003
  -3.9976642646910743E-003
   7.3850220169558320E-002
  -4.0763822869193743E-002
  -2.9328782547330654E-002
  0.10218348856965133     
   8.8729251347017174E-002
   8.5213425991882322E-002
   9.9101572105489283E-002
   1.4236639794435235E-002
   8.4656356830043994E-002
   3.7204562815700642E-002
  -1.5773401556452498E-002
   3.2046782014382838E-002
   1.9158383952186487E-002
  -2.9864808637573910E-002
  -4.6836371416254977E-002
  -8.5614296729932121E-003
   4.7736143477054099E-002
   1.3412355288035402E-002
   7.7828962630039064E-002
  0.11189728087727069     
 -0.12597232282948795     
   3.9557819159225210E-002
  0.11551204132464180     
   8.9840403945123826E-002
   4.6377314285288074E-002
   1.7392604900260487E-003
  -3.2200460527051313E-002
  -8.1996441237320097E-003
  -3.6014293778837705E-002
   3.3620563401329157E-002
   4.2164520146469823E-004
   8.4715612327347992E-004
  -5.9871785852381662E-002
   5.0105465892180484E-002
  -1.8339702523783325E-002
   3.0346560280068970E-002
  -2.9162754172416705E-002
  -4.6768160225840218E-002
   8.9662053162359520E-002
   5.8261362830622748E-002
   3.6943799574977398E-002
   9.9765802868600151E-002
  -2.6869570604856993E-002
  0.10997713693654562     
  -6.5072224764563286E-002
   8.8219384996320413E-002
  -5.8390392211272998E-002
  -1.3621946763661292E-002
  -4.5758805073688402E-002
   4.4257815936538776E-002
  -7.0444488085279297E-002
   8.7575715092981385E-002
  -7.2366285227489058E-002
  -4.9718906493942783E-002
   7.8422127564578767E-002
   3.6702052066291124E-002
 -0.16286130101308072     
  -9.9107851445900275E-003
  -4.8724745315496767E-002
  -7.3251695170608033E-002
  -8.1448028789888799E-002
  -7.2007696553493608E-002
  -6.7484430530183145E-002
  -5.6687479731689187E-002
  -3.6644318946714230E-002
  -7.8938567672627385E-002
 -0.13158035352102498     
 -0.16734487306543921     
  -8.4783974263527073E-002
   6.2551017196295411E-002
   1.7564564065505432E-002
  -6.5993772664367831E-002
  -7.0446969676433976E-002
  -6.9954396384740894E-002
  -7.7522421124320978E-002
  -3.9899234905249048E-002
  -1.2247084661381798E-002
   2.6590905795080687E-002
   7.3171500692515545E-002
  -7.0414909882712387E-002
   4.7340680428853039E-002
  -5.1127752891416800E-002
  -4.5586926407973169E-002
   6.5411222435185351E-003
  -7.4538585819006867E-002
   5.3347995419888647E-002
  -8.2968977326897175E-002
   6.3741543255009220E-002
  -3.5381913074424912E-002
  -7.0214733894100337E-002
  -6.4325676411129670E-002
  -2.0500654488008124E-002
  -7.2701802341384542E-002
 -0.10196352709260041     
 -0.10235332906432351     
  -8.3732320847217045E-002
  -6.3174982774811997E-002
  -5.3233385576099267E-002
  -5.5065343516449844E-002
 -0.10445642590721148     
 -0.20680189488282388     
  -1.3072101826845619E-002
   4.2729600698215783E-002
  -4.3890935330503325E-002
   2.6138088303893522E-002
   4.4670476359954477E-002
  -3.6483379262747889E-002
  -1.0413355055603226E-002
   6.0716233858787383E-002
  -9.8058144943004591E-002
  -7.8767321949207131E-002
 -0.11781611770059276     
  -1.8562910869844081E-002
 -0.16439702479735060     
   6.5815035364152077E-002
   3.3820718299816872E-002
  -4.0927922810927747E-002
  -3.9858651784249674E-002
  -2.3886864814525524E-002
  -4.2493845085040005E-002
 -0.18599215570854122     
 -0.19926292984009145     
 -0.16583280006258458     
 -0.10530591945086555     
  -4.6706214707532889E-002
  -1.5554384773665938E-002
  -2.3568095859181241E-002
   5.8569878819229183E-002
   9.1962775217870382E-003
  -6.7755743160117315E-002
 -0.18661595860942923     
  -8.8200439276919611E-003
   8.7563315497438482E-002
  -9.4212498226833863E-002
  0.10517991869255514     
   7.9820682514811475E-002
   6.3151474167273944E-002
  -4.6561638912135883E-002
 -0.10945210945363365     
 -0.10528066941976583     
   3.1665352864566815E-002
 -0.22393023108377266     
   8.4970417329362238E-002
 -0.20977634070200396     
   7.9382558965786554E-002
 -0.15690804188085136     
   1.3995060958365214E-002
  -8.9978669941427586E-002
  -8.2142887162544892E-002
 -0.16807383729206787     
  -3.1419854834109598E-002
   5.0806898755073007E-002
 -0.10329999688745169     
  -5.1009843357049146E-002
   5.2429025743783893E-002
  -2.3393137432362168E-002
  -2.9697180322733888E-002
  -3.4943517778181291E-002
 -0.15725462625008890     
 -0.16312227876604421     
  0.10401858054776553     
   5.7338490093267420E-002
  -6.1295119746894181E-002
  -3.1314744095531435E-002
 -0.11722687184119640     
  0.11393647380467209     
  0.15286415041283849     
 -0.11564935741986977     
   7.5490507185248190E-002
  -6.7226738956204374E-002
  -9.3302387820295818E-002
  -2.6959800822440590E-002
 -0.13745556417935578     
 -0.12579722668297416     
  -7.4999386661745271E-002
  -1.9959912352485974E-002
   3.0565094984085607E-003
  -2.8125676773886055E-002
   4.1002312941137514E-002
  0.15028473771544409     
  -7.1220727754496768E-002
  -2.0651444346347178E-002
  -8.4851545612171925E-002
  0.14004590804060429     
   8.3813378178713926E-002
  -8.6420848772441591E-002
  -3.0693643707881649E-002
 -0.10815262432920515     
 -0.10803522839095231     
  -8.0992056403377637E-003
   4.1948600896773984E-002
  -5.0497576122415767E-002
  0.13357171763444600     
 -0.10445352278019321     
   7.2315929142659829E-002
  -1.1451092222852455E-002
   3.0991160728465021E-003
  -8.3116489948774686E-002
  0.11688134921837709     
  0.19983991151573971     
  0.21242092278058389     
  0.15256889700778609     
  -4.3877262068045403E-002
   1.1670071996378235E-003
  -2.6584239260576049E-002
   8.8153395065552392E-002
  0.30060657066435109     
  0.24812091234851555     
 -0.15980741393010373     
 -0.11749130201778396     
   8.1638537348083171E-003
  -2.3747532969671668E-002
  0.11531098645844817     
 -0.10930953219531145     
  0.31866155047282924     
 -0.12712863574346644     
  0.20783269682819994     
  -5.2112284511166250E-002
   8.4033053125299975E-002
  0.23504635456694753     
  0.32940868783847460     
  0.33847610299616498     
  0.26693991074126588     
   3.6869477129262043E-002
  -3.1685419099000842E-002
  0.12172227954761854     
  0.10768208442823843     
  0.20166117812116024     
  0.28580342881717047     
 -0.17183090421274133     
   2.7370396318827039E-002
  0.16185832213858217     
  0.19966868946292865     
  0.27933910754979041     
  0.32107783943311219     
 -0.14910020322474926     
  -3.5595981784856567E-002
  0.11572914364998726     
   3.8243180723714743E-002
  0.23670435433491371     
   1.5914068274632792E-002
  0.28285413915059132     
  0.25219861539597233     
  0.17643966231387034     
   9.6150825629294612E-002
   2.6152030057073082E-002
  -3.5834534873535120E-002
   6.5895359952185997E-002
 -0.20127250369366798     
 -0.11623420228218639     
  0.15739949749332927     
 -0.15271169037987389     
  -1.3553186537427236E-002
  -1.7231602920091411E-002
  0.11775481593582458     
  -5.3469968499921687E-002
  0.16974067069013749     
   2.2071806276792314E-002
  0.10527370892687654     
   1.2006750698907505E-002
  -9.1471756808591889E-002
 -0.13540667864124459     
 -0.10664803325348160     
   7.2537937067156985E-002
  0.17490964647102880     
  -2.4653050422147160E-002
 -0.16800926498923391     
  0.10455392580879966     
  0.19796604322088523     
  -7.7199623742863765E-002
   7.5251351856818943E-002
  0.17672319620031990     
  0.23109738145392761     
  0.24018095935363892     
  0.18369443116744158     
   3.7730096181408573E-002
  0.21505133381808406     
  0.20898777496526461     
  0.28762220915788905     
  0.25535972385464345     
  0.15464153744404857     
  0.27827674644058842     
  0.39355744975888640     
   8.0004324969875668E-002
  0.26797612256667547     
  0.12200754322575746     
   7.7299575547638737E-003
   2.4923127946974134E-002
  -6.1858140118428262E-004
  -7.9054128036088728E-009
  -4.7969328218846033E-010
  -0.0000000000000000     
  -4.4718903040874045E-002
  -3.5165856980068196E-002
  -4.9572150366344256E-002
  -5.6994153414068813E-002
  -4.5976262598728529E-002
  -4.3895184319591218E-002
  -4.2213451865056720E-002
  -5.3305820703777797E-002
   4.4829942876658757E-002
   7.7149071507313663E-002
  -4.5845047020475226E-002
  -5.5911404450735780E-002
  -4.9215535260910090E-002
  -8.4127755764734857E-002
  -5.5785539755709518E-002
   3.0513075425342817E-002
  -2.7864844517815398E-002
  -2.1111952327010575E-002
  -4.0235455997119848E-002
  -4.3439082303092340E-002
  -2.5695363299886309E-002
  -1.8025789069512462E-002
   1.4907981694000545E-003
   2.0447433186446102E-003
  -3.3373860766371569E-002
  -5.6888035686186014E-002
   3.7033199604011259E-003
  -8.6219334314321435E-003
  -2.6417791717490448E-002
  -3.0222180861186873E-002
  -1.6901924075871301E-002
  -5.8101563064059062E-003
  -5.1975979395878572E-004
  -3.3874580385123577E-003
   6.2218246067322416E-003
  -3.5969562375614383E-002
  -3.0172689930333445E-002
  -1.4293442518746119E-002
  -5.0807861800387565E-002
  -5.7585342116351225E-002
   4.6652608818413280E-002
  -5.5479532500835378E-002
  -4.3971898270804943E-002
  -4.2349751844984289E-002
  -5.1056303132088421E-002
  -5.5697656920518750E-002
   7.2112474684798786E-003
   1.8313304909901339E-003
  -9.6935740547879085E-003
  -2.3218721825077206E-002
  -3.4862292006912515E-002
  -2.2673585228894573E-002
  -3.6838373960571359E-002
  -3.4091534208691474E-002
  -3.1581561709944174E-002
   2.0107480190690037E-002
   1.1299690650786386E-002
  -1.0039129541510832E-002
   2.9007271669966007E-002
   4.8115252163655489E-002
   6.5775433975744785E-002
   7.8647327944794745E-002
   8.4655567871582044E-002
  -2.0178742962440373E-002
  -2.2609007033979417E-002
   4.9744411626127805E-002
   5.6887996278886570E-002
   5.0084532754122911E-002
   3.0391273390161032E-002
   4.1330676025536266E-003
  -5.4261843326140660E-002
  -5.0313537039258824E-002
  -3.6320802148016917E-002
  -1.5337959930242322E-002
   2.1531234782596120E-002
   4.7976770483602077E-002
   2.6345269172619784E-002
   2.0521705917601569E-002
   7.6162426597585677E-003
  -3.1139051828416493E-002
  -6.9364048365343073E-003
  -8.7412174211380436E-003
  -1.8032426014947783E-002
   1.4589419798017280E-002
   3.1429910399439147E-002
  -6.9755362730009318E-002
  -1.2408371229242631E-002
   3.6922525376207757E-002
  -2.2578218270810479E-003
   3.0713633818178831E-002
   7.0623132296030004E-003
   1.6739820403961669E-002
   1.3017634376155766E-002
   1.1367021256172977E-003
   1.4318239909286486E-002
  -1.0293383571231218E-002
   1.1342808869545100E-002
  -1.4005023252535741E-002
   6.1789230887348869E-003
  -9.4368869525943231E-003
  -4.4208246406585355E-002
   2.1647528117788636E-003
   1.5409407146975151E-002
   2.8591508231138280E-002
   3.7898627525346236E-002
   4.1382481161107251E-002
  -2.7901380311432127E-002
   3.8540899243522206E-002
   6.6419892875093617E-002
   4.5929923659120374E-002
   5.6168885072674361E-002
  0.12565407242640228     
   9.6998149237519232E-002
 -0.10759507998897004     
   3.9169724541039197E-003
   3.8899500600541863E-002
   4.2996849680494234E-003
  -2.6799835878675805E-003
   9.4441446970529308E-004
   2.2837157418253894E-002
  -2.0003678841519074E-002
  -1.1203799301420252E-002
   3.3067195366248629E-002
   1.4363722050653040E-002
   9.6913306560648393E-003
   3.6983506959755642E-002
   5.8000618682830199E-002
   6.5504134401389066E-002
   1.9526630557834192E-002
   5.7881058591630993E-002
   5.8114610617953220E-002
   3.9644945622254020E-002
   7.3605512788594257E-002
   1.8950820834615151E-002
   8.2896253360569147E-002
  -3.8315106008364897E-004
   6.9693401660070806E-003
   2.3346382603759774E-002
   4.4169724080730527E-002
   6.4787594523356279E-002
   8.1665296093483206E-002
   9.2633230341804346E-002
   9.6639015826316968E-002
   9.3330076542427642E-002
   8.2898657521844540E-002
   4.6872845113198086E-002
   3.3298698163790566E-002
 -0.11545509878176910     
 -0.11719038822578821     
   1.2005259226529152E-002
   7.1332419111116829E-003
   1.9418553408413943E-002
   8.8547125744609753E-002
   7.9490051643241563E-002
   6.4042628861515322E-002
   7.0637620180753910E-002
  -2.2340415403537581E-002
   4.7681872005924622E-002
   4.5358860192465551E-002
   6.8599288791589608E-002
   7.7658908987928904E-002
   6.9346983908813845E-002
  -4.9207405966300112E-002
   3.8015005679523125E-003
  -2.7097256351812380E-003
   7.0735623670178896E-002
   4.4644598612341036E-003
   8.0758909660229111E-002
   2.1837649307766719E-002
   7.2390200503261587E-002
   4.3575891117218504E-002
   4.9539098137010767E-002
   2.1985099081203059E-002
   4.6616062771235561E-002
   5.9856943572229827E-004
   9.1661729611945547E-002
  -7.2879094034162002E-003
   9.0110655488497338E-002
  -3.0363096275863696E-004
   8.4998365816937690E-002
   1.7538540870983315E-002
   7.6527203354870552E-002
   3.9532427664838950E-002
   6.4093697312710751E-002
   5.9260194298053952E-002
   4.7318521833910263E-002
   7.2597730873270219E-002
   7.8445554430833953E-002
   7.8155847877609597E-002
   7.4182001627418170E-002
   6.8731213277081815E-002
   6.2886068063231326E-002
  -1.7334834908632156E-002
  -4.5918434272250348E-003
   3.9702989495806779E-002
   2.9989661614515294E-002
   5.6345881296707374E-002
   4.6651251138804813E-002
   2.0593354820670241E-003
  -2.6972092014522418E-002
   6.8071036985196759E-002
   8.0441103178309353E-002
   7.2872084058798803E-002
   1.5303194801378877E-002
  -1.5831922563239786E-002
   3.5619359911588442E-003
   2.3493153800940858E-002
   2.7220974267984002E-002
   1.0188277317342431E-002
  -1.9123128923937728E-002
   5.4903685183414638E-002
  -3.2256697442965360E-002
   4.4603465382723848E-002
  -2.6186622160734242E-002
   1.6134051449323429E-002
  -5.7818612603050311E-003
   7.0409359670890086E-003
   4.4007222042698182E-003
   4.8645520592220229E-002
   4.4467045546333253E-002
   1.4644890026449364E-002
   2.9590759445932611E-002
   9.1217659064291856E-003
  -1.1033127096850288E-002
  -3.1521545662793443E-002
 -0.10163209533630332     
  -7.7322715656154867E-002
  -1.1951107529997288E-002
  -7.4432411167276363E-002
  -4.8930777281676718E-002
  -1.9062180721977035E-002
  -8.7487323661811209E-002
  -3.5691050727253294E-002
   6.2650953690634170E-002
   3.7365449008793149E-002
  -7.4603475998838691E-004
  -5.3621289540597451E-002
   5.7420988178736462E-002
   3.3574260236259423E-002
   2.5842304267154642E-002
  -5.4505909451087629E-003
   3.5892365781545102E-002
  -4.3073117876748099E-002
   2.9504567824533624E-002
  -6.3820154171288293E-002
   9.2812317703620285E-003
  -6.0808677467193567E-002
  -3.7966974610532014E-002
   8.8408060988744069E-002
  -6.8885850616156640E-003
  -9.1119100694817823E-002
   1.9209864835055677E-002
  -9.6159004159921915E-002
   3.0752942161189414E-002
  -8.8614240789577831E-002
   2.4564471050358694E-002
  -6.9891620832785661E-002
   3.4150705573767742E-003
  -2.6552209928329545E-002
  -5.8514178153345482E-002
  -8.6701821446401720E-002
 -0.10710331815890002     
 -0.11224911025510616     
 -0.10579315977357273     
  -7.5231833510914059E-002
 -0.12660455284510985     
 -0.12084725154372533     
  -6.3517133372994319E-002
  -3.2582193323255973E-002
  -3.1739565590967272E-002
   1.2903358941568523E-004
   2.2623079199127309E-002
   2.4807519342543671E-002
   3.0137623361230952E-003
  -5.2776688286058068E-002
  -1.0797166107107460E-002
   2.7757760880806986E-002
  -7.9514032575450491E-002
  -8.0357983353751841E-002
  -5.7293765285040245E-002
  -2.2522255201021763E-002
  -1.0864319985658306E-002
   8.3676799259864067E-003
  -5.4288511762392355E-002
   1.8765511132360725E-002
  -2.4705894249004122E-003
  -6.4849061770689442E-002
  -2.8449192924570248E-002
  -8.9673475302348926E-002
   4.9341147442145883E-003
 -0.10876421150630046     
   2.2059514365151925E-002
   1.8108858576322037E-002
 -0.12583945990225362     
  -3.2681189075983233E-003
 -0.11724249074231181     
  -9.9360863493848608E-002
  -6.2954468708765032E-002
  -8.5784027390736761E-002
 -0.10007813037953465     
 -0.11138400887453859     
 -0.11320494803120232     
  -7.4154521093053830E-002
  -5.3459896942830508E-002
  -6.1376221688751488E-002
  -7.3028771773853501E-002
   5.4207263122938984E-002
  -9.5088066239741323E-002
  -5.0110264818656929E-002
  -8.5761233596471378E-002
  -7.4619926538546336E-002
  -3.5636796835372603E-002
  -8.2755420283372322E-002
  -9.5671614037251343E-002
  -7.7145358578241230E-002
  -6.0657935723014367E-002
  -3.7323139654499814E-002
  -7.7876302378698192E-002
   4.2017740295734757E-003
  -8.0861531224149311E-002
   2.9001687955358478E-002
   2.8239422759860192E-002
   5.1410336683961957E-003
  -5.3284626735895207E-002
  -2.8546228943696492E-002
  -6.1651977027909102E-002
  -5.8824465751377661E-002
  -5.8916961007227847E-002
  -3.7563820830443295E-002
  -1.9458378081516962E-002
   8.4686263591880306E-002
   6.0462154481825049E-002
   6.8296987810996232E-002
  -8.3503418346720926E-003
  -3.0988183725132869E-002
   8.4134399537097691E-003
  -3.8803304440163972E-002
   4.0561057036378675E-002
   4.4610683182795985E-002
   2.1670365613250173E-002
  -1.5735853238119255E-002
  -5.0781403137877254E-002
   1.0191144379083288E-002
  -6.6654893107082100E-002
  -4.3555048073675537E-002
   3.2403018305896265E-002
   2.8427372128948886E-002
  -6.3508111307517684E-003
   5.6534374676350370E-002
  -4.3980025878611002E-002
  -6.5331561052675499E-002
  -6.3317076078908394E-002
  -3.9496490024293236E-002
  -1.5770366193529582E-003
   4.0059077197125398E-002
   7.5481637324406603E-002
   9.9768555670884093E-002
  0.13125232914848423     
  0.11436875121263308     
   6.2364674251275997E-003
   4.7987315401905699E-002
   8.5752353363467176E-002
   1.1509095575709729E-002
   5.0863398839873293E-002
  0.10953377435204105     
   6.3201185170737306E-002
   9.8192568716340980E-002
   9.5198946176127855E-002
   9.8721273251871966E-002