# vtk DataFile Version 3.1
Mesh with Data
ASCII
DATASET UNSTRUCTURED_GRID
POINTS         7552 float
      0.200000E+03      0.000000E+00      0.200000E+03
      0.000000E+00      0.000000E+00      0.200000E+03
      0.197500E+03      0.000000E+00      0.200000E+03
      0.195000E+03      0.000000E+00      0.200000E+03
      0.192500E+03      0.000000E+00      0.200000E+03
      0.190000E+03      0.000000E+00      0.200000E+03
      0.187500E+03      0.000000E+00      0.200000E+03
      0.185000E+03      0.000000E+00      0.200000E+03
      0.182500E+03      0.000000E+00      0.200000E+03
      0.180000E+03      0.000000E+00      0.200000E+03
      0.177500E+03      0.000000E+00      0.200000E+03
      0.175000E+03      0.000000E+00      0.200000E+03
      0.172500E+03      0.000000E+00      0.200000E+03
      0.170000E+03      0.000000E+00      0.200000E+03
      0.167500E+03      0.000000E+00      0.200000E+03
      0.165000E+03      0.000000E+00      0.200000E+03
      0.162500E+03      0.000000E+00      0.200000E+03
      0.160000E+03      0.000000E+00      0.200000E+03
      0.157500E+03      0.000000E+00      0.200000E+03
      0.155000E+03      0.000000E+00      0.200000E+03
      0.152500E+03      0.000000E+00      0.200000E+03
      0.150000E+03      0.000000E+00      0.200000E+03
      0.147500E+03      0.000000E+00      0.200000E+03
      0.145000E+03      0.000000E+00      0.200000E+03
      0.142500E+03      0.000000E+00      0.200000E+03
      0.140000E+03      0.000000E+00      0.200000E+03
      0.137500E+03      0.000000E+00      0.200000E+03
      0.135000E+03      0.000000E+00      0.200000E+03
      0.132500E+03      0.000000E+00      0.200000E+03
      0.130000E+03      0.000000E+00      0.200000E+03
      0.127500E+03      0.000000E+00      0.200000E+03
      0.125000E+03      0.000000E+00      0.200000E+03
      0.122500E+03      0.000000E+00      0.200000E+03
      0.120000E+03      0.000000E+00      0.200000E+03
      0.117500E+03      0.000000E+00      0.200000E+03
      0.115000E+03      0.000000E+00      0.200000E+03
      0.112500E+03      0.000000E+00      0.200000E+03
      0.110000E+03      0.000000E+00      0.200000E+03
      0.107500E+03      0.000000E+00      0.200000E+03
      0.105000E+03      0.000000E+00      0.200000E+03
      0.102500E+03      0.000000E+00      0.200000E+03
      0.100000E+03      0.000000E+00      0.200000E+03
      0.975000E+02      0.000000E+00      0.200000E+03
      0.950000E+02      0.000000E+00      0.200000E+03
      0.925000E+02      0.000000E+00      0.200000E+03
      0.900000E+02      0.000000E+00      0.200000E+03
      0.875000E+02      0.000000E+00      0.200000E+03
      0.850000E+02      0.000000E+00      0.200000E+03
      0.825000E+02      0.000000E+00      0.200000E+03
      0.800000E+02      0.000000E+00      0.200000E+03
      0.775000E+02      0.000000E+00      0.200000E+03
      0.750000E+02      0.000000E+00      0.200000E+03
      0.725000E+02      0.000000E+00      0.200000E+03
      0.700000E+02      0.000000E+00      0.200000E+03
      0.675000E+02      0.000000E+00      0.200000E+03
      0.650000E+02      0.000000E+00      0.200000E+03
      0.625000E+02      0.000000E+00      0.200000E+03
      0.600000E+02      0.000000E+00      0.200000E+03
      0.575000E+02      0.000000E+00      0.200000E+03
      0.550000E+02      0.000000E+00      0.200000E+03
      0.525000E+02      0.000000E+00      0.200000E+03
      0.500000E+02      0.000000E+00      0.200000E+03
      0.475000E+02      0.000000E+00      0.200000E+03
      0.450000E+02      0.000000E+00      0.200000E+03
      0.425000E+02      0.000000E+00      0.200000E+03
      0.400000E+02      0.000000E+00      0.200000E+03
      0.375000E+02      0.000000E+00      0.200000E+03
      0.350000E+02      0.000000E+00      0.200000E+03
      0.325000E+02      0.000000E+00      0.200000E+03
      0.300000E+02      0.000000E+00      0.200000E+03
      0.275000E+02      0.000000E+00      0.200000E+03
      0.250000E+02      0.000000E+00      0.200000E+03
      0.225000E+02      0.000000E+00      0.200000E+03
      0.200000E+02      0.000000E+00      0.200000E+03
      0.175000E+02      0.000000E+00      0.200000E+03
      0.150000E+02      0.000000E+00      0.200000E+03
      0.125000E+02      0.000000E+00      0.200000E+03
      0.100000E+02      0.000000E+00      0.200000E+03
      0.750000E+01      0.000000E+00      0.200000E+03
      0.500000E+01      0.000000E+00      0.200000E+03
      0.250000E+01      0.000000E+00      0.200000E+03
      0.000000E+00      0.000000E+00      0.000000E+00
      0.000000E+00      0.000000E+00      0.197500E+03
      0.000000E+00      0.000000E+00      0.195000E+03
      0.000000E+00      0.000000E+00      0.192500E+03
      0.000000E+00      0.000000E+00      0.190000E+03
      0.000000E+00      0.000000E+00      0.187500E+03
      0.000000E+00      0.000000E+00      0.185000E+03
      0.000000E+00      0.000000E+00      0.182500E+03
      0.000000E+00      0.000000E+00      0.180000E+03
      0.000000E+00      0.000000E+00      0.177500E+03
      0.000000E+00      0.000000E+00      0.175000E+03
      0.000000E+00      0.000000E+00      0.172500E+03
      0.000000E+00      0.000000E+00      0.170000E+03
      0.000000E+00      0.000000E+00      0.167500E+03
      0.000000E+00      0.000000E+00      0.165000E+03
      0.000000E+00      0.000000E+00      0.162500E+03
      0.000000E+00      0.000000E+00      0.160000E+03
      0.000000E+00      0.000000E+00      0.157500E+03
      0.000000E+00      0.000000E+00      0.155000E+03
      0.000000E+00      0.000000E+00      0.152500E+03
      0.000000E+00      0.000000E+00      0.150000E+03
      0.000000E+00      0.000000E+00      0.147500E+03
      0.000000E+00      0.000000E+00      0.145000E+03
      0.000000E+00      0.000000E+00      0.142500E+03
      0.000000E+00      0.000000E+00      0.140000E+03
      0.000000E+00      0.000000E+00      0.137500E+03
      0.000000E+00      0.000000E+00      0.135000E+03
      0.000000E+00      0.000000E+00      0.132500E+03
      0.000000E+00      0.000000E+00      0.130000E+03
      0.000000E+00      0.000000E+00      0.127500E+03
      0.000000E+00      0.000000E+00      0.125000E+03
      0.000000E+00      0.000000E+00      0.122500E+03
      0.000000E+00      0.000000E+00      0.120000E+03
      0.000000E+00      0.000000E+00      0.117500E+03
      0.000000E+00      0.000000E+00      0.115000E+03
      0.000000E+00      0.000000E+00      0.112500E+03
      0.000000E+00      0.000000E+00      0.110000E+03
      0.000000E+00      0.000000E+00      0.107500E+03
      0.000000E+00      0.000000E+00      0.105000E+03
      0.000000E+00      0.000000E+00      0.102500E+03
      0.000000E+00      0.000000E+00      0.100000E+03
      0.000000E+00      0.000000E+00      0.975000E+02
      0.000000E+00      0.000000E+00      0.950000E+02
      0.000000E+00      0.000000E+00      0.925000E+02
      0.000000E+00      0.000000E+00      0.900000E+02
      0.000000E+00      0.000000E+00      0.875000E+02
      0.000000E+00      0.000000E+00      0.850000E+02
      0.000000E+00      0.000000E+00      0.825000E+02
      0.000000E+00      0.000000E+00      0.800000E+02
      0.000000E+00      0.000000E+00      0.775000E+02
      0.000000E+00      0.000000E+00      0.750000E+02
      0.000000E+00      0.000000E+00      0.725000E+02
      0.000000E+00      0.000000E+00      0.700000E+02
      0.000000E+00      0.000000E+00      0.675000E+02
      0.000000E+00      0.000000E+00      0.650000E+02
      0.000000E+00      0.000000E+00      0.625000E+02
      0.000000E+00      0.000000E+00      0.600000E+02
      0.000000E+00      0.000000E+00      0.575000E+02
      0.000000E+00      0.000000E+00      0.550000E+02
      0.000000E+00      0.000000E+00      0.525000E+02
      0.000000E+00      0.000000E+00      0.500000E+02
      0.000000E+00      0.000000E+00      0.475000E+02
      0.000000E+00      0.000000E+00      0.450000E+02
      0.000000E+00      0.000000E+00      0.425000E+02
      0.000000E+00      0.000000E+00      0.400000E+02
      0.000000E+00      0.000000E+00      0.375000E+02
      0.000000E+00      0.000000E+00      0.350000E+02
      0.000000E+00      0.000000E+00      0.325000E+02
      0.000000E+00      0.000000E+00      0.300000E+02
      0.000000E+00      0.000000E+00      0.275000E+02
      0.000000E+00      0.000000E+00      0.250000E+02
      0.000000E+00      0.000000E+00      0.225000E+02
      0.000000E+00      0.000000E+00      0.200000E+02
      0.000000E+00      0.000000E+00      0.175000E+02
      0.000000E+00      0.000000E+00      0.150000E+02
      0.000000E+00      0.000000E+00      0.125000E+02
      0.000000E+00      0.000000E+00      0.100000E+02
      0.000000E+00      0.000000E+00      0.750000E+01
      0.000000E+00      0.000000E+00      0.500000E+01
      0.000000E+00      0.000000E+00      0.250000E+01
      0.200000E+03      0.000000E+00      0.000000E+00
      0.250000E+01      0.000000E+00      0.000000E+00
      0.500000E+01      0.000000E+00      0.000000E+00
      0.750000E+01      0.000000E+00      0.000000E+00
      0.100000E+02      0.000000E+00      0.000000E+00
      0.125000E+02      0.000000E+00      0.000000E+00
      0.150000E+02      0.000000E+00      0.000000E+00
      0.175000E+02      0.000000E+00      0.000000E+00
      0.200000E+02      0.000000E+00      0.000000E+00
      0.225000E+02      0.000000E+00      0.000000E+00
      0.250000E+02      0.000000E+00      0.000000E+00
      0.275000E+02      0.000000E+00      0.000000E+00
      0.300000E+02      0.000000E+00      0.000000E+00
      0.325000E+02      0.000000E+00      0.000000E+00
      0.350000E+02      0.000000E+00      0.000000E+00
      0.375000E+02      0.000000E+00      0.000000E+00
      0.400000E+02      0.000000E+00      0.000000E+00
      0.425000E+02      0.000000E+00      0.000000E+00
      0.450000E+02      0.000000E+00      0.000000E+00
[...]
CELL_DATA        14782
SCALARS cvs float
LOOKUP_TABLE default
 -0.19556114278317974     
  -4.8291001649782297E-002
   1.7168051689337438E-003
  -1.5732988369361899E-002
  0.16626263182593459     
 -0.16150375952813262     
  -6.5579449054052087E-003
   5.8117964749208328E-003
  -1.2953566769397188E-002
  -4.9852208745622517E-002
   4.8214312657976523E-002
  0.11135933813994073     
   8.0408970112208183E-002
   1.5061641267304457E-002
  -7.7080734054995020E-002
  -9.8792159336256513E-002
 -0.23334485248102421     
  0.20162582938692653     
 -0.10961539548498310     
 -0.21703151843260915     
 -0.11608621853473949     
   1.3452542942000604E-002
  -3.2563476221357045E-002
 -0.19233180362719479     
 -0.22906502373159471     
 -0.16843628780558431     
 -0.10564649453446867     
 -0.17323670970089530     
 -0.19941408665816926     
 -0.17797827946421790     
 -0.12184523889719559     
  -5.6343974926038057E-002
   1.2198764947602806E-002
  -2.0373658932352785E-004
  -1.4859921843749735E-002
  -2.8605612752620885E-002
   6.7512159862336010E-002
  -8.3443447331555953E-003
   8.4156213073428604E-002
  -4.6347232470771632E-002
 -0.15613127416312358     
 -0.11295150599513891     
  -8.0096973537430421E-002
  -4.4858308336994251E-002
   8.7649795965631716E-002
   1.1124765989490866E-002
  -5.7567930676148599E-002
  -8.5442913307914037E-002
  -9.2665535878083433E-002
   9.1496674842376974E-002
  0.23925205179584913     
  0.14199960631400860     
  -3.3037171130199217E-002
  0.15118067088243567     
  -3.9009121212028777E-002
  0.10778359129695123     
  -8.0917460147525433E-003
   2.3594089877360825E-002
   5.6504113270907867E-002
  -7.5762041838054905E-002
  0.13221904362942005     
  0.18886700082241958     
  0.11504987058498163     
 -0.12187564908676074     
  0.16155443457016821     
  -2.0318281990512159E-002
   7.8300501253863439E-002
   6.5809655398037931E-002
  -2.6272650852379578E-002
 -0.12815903241664123     
  0.19688813808572730     
  -1.6290842720928927E-003
   5.9191260718706201E-002
   9.9229199078802635E-002
  -6.6258936345941460E-002
 -0.18639442773088008     
  0.13324693186820788     
   2.1189823704551899E-002
  0.12732431516377035     
  0.15470216859606106     
 -0.13495083621171061     
   8.1829295433404892E-003
 -0.11397544179051416     
   3.8174452585917770E-002
  0.13947397777347731     
  -2.0236396202192055E-002
 -0.13149446839153656     
   6.9528855423925742E-002
   5.6841802278783660E-003
   6.2504859700938525E-002
   7.7541424304957668E-002
   5.2952282546712685E-002
  -4.9525569062028648E-003
 -0.20465060795258333     
 -0.22816801952228016     
  -6.5919009321198249E-002
  -5.4138296737743251E-002
  0.16142771938851264     
   8.7579089695753037E-002
  -3.1987576207234886E-002
  -3.0735163724240684E-002
  -7.0748552280720661E-002
 -0.14152993758715682     
 -0.17103638429631102     
  -4.2139471159955366E-002
  0.16798243394800846     
  -3.3701041761125719E-002
  -7.3820238112591266E-002
 -0.15226513095961197     
  -4.9116383722774652E-002
  -3.2351279023755473E-002
   6.8970249658149685E-002
  -6.6506601126918627E-002
  -3.5683203810044216E-002
  -9.9962618703259787E-002
 -0.15304322246797686     
 -0.16753791152535408     
  -8.8845528526767026E-002
 -0.12926146209770240     
  -3.7130551586007289E-002
  -4.8710579382809316E-002
  -3.5664857389172355E-002
   4.4493336613366498E-002
  -8.3390835217084680E-002
 -0.14471082218887912     
   8.7046012615598634E-002
 -0.17733829671140569     
  -3.6370772641431629E-003
 -0.16013446972870454     
  -7.9678089932511201E-002
  -6.4470527823619964E-002
  -1.3540104586897937E-002
   7.3063291226128507E-002
  0.28268900958556420     
  0.14026992930612764     
  0.16867808583996571     
  0.14393691575897521     
   7.2100708255925794E-002
  -1.5297129468545521E-003
  0.24088766582032184     
   5.3661758016827585E-002
  -6.1351187764218190E-002
 -0.15107382513514894     
 -0.17491216506788637     
 -0.12530583775191387     
  0.15991361206201499     
  -9.1339888743345421E-002
  -6.7123629439435395E-002
  0.29756845635190105     
  0.10668722449322390     
  0.12626671921288488     
   6.9427539358460980E-002
  -5.3574446238802698E-003
  0.14785622826869843     
 -0.23526736890533184     
  -8.7854578819877641E-002
  0.19738442045593099     
  -7.8840152206372555E-002
   7.6047646965365187E-002
  -6.1250904530044448E-002
   4.8803325017498789E-003
  -1.8265333490076096E-002
  -2.4538171475452099E-002
   6.6092710592003043E-002
  -2.6549086357679989E-002
  -6.9285271140880914E-002
  0.22039799656350639     
  0.17622034476110551     
  -6.4488671004842457E-002
 -0.10824033327304455     
 -0.13069767900408499     
  -9.2996354195286068E-002
   1.6222720051507461E-002
  0.15108017306025101     
  0.21816701735670127     
  0.14604536142814234     
  0.29073411571378188     
  0.23888067046314643     
 -0.22348266445746026     
  -2.3675272612231825E-002
   9.9063341345718314E-002
   9.5064826992148771E-002
   1.8154329170880119E-002
 -0.13516738140222428     
   3.7334609453443642E-002
   5.3966170698803273E-002
  0.21867391631502023     
   8.8377625916727764E-002
   5.1370195536662729E-002
  -1.0820216645425922E-002
  -3.4954585872972510E-002
   3.6613780567248011E-002
  0.11520970795585203     
  0.16383583144414415     
  0.19603019627560742     
   3.0656013818799052E-002
   2.8834193610969908E-002
  0.10978659062328194     
   2.5128844492261240E-002
  -6.6948950822379699E-002
 -0.13658673643743519     
 -0.15965553816596426     
 -0.13364114355656484     
  -9.4945426029619723E-002
   6.8335303237333486E-002
  0.24009699508135396     
   3.9280579238965621E-002
  0.23145930919986918     
  0.17109550050715921     
  -1.8296920368380598E-002
  -3.1397876224944075E-002
   9.7333536814974933E-002
  -3.5236699595863057E-002
   8.3977263401842694E-002
 -0.17498976196706681     
 -0.38025958063442478     
  0.21471100091485382     
 -0.15867841837157287     
  0.23814098080863866     
  -4.7114211160131501E-002
  0.23385540244170913     
   7.8885214925323188E-002
  0.19517833069035226     
  0.15610901961523543     
   9.2426012274005528E-002
  0.17925613337383436     
  0.18125083336657638     
 -0.28351077639427757     
   9.6100886182124617E-002
  0.26813483389631798     
  0.14491871334208237     
  0.10285086980866855     
  -5.9233892309525513E-002
 -0.22881414289987387     
  0.33414862737865708     
  -7.4382704364588936E-003
  -3.5522284227734277E-002
  -6.4183391491108327E-002
  0.12707577228502992     
 -0.38971636835991963     
   7.5320709664983526E-002
   2.4210770822193639E-003
   9.3788587353643094E-002
  0.31517851093031435     
   9.2603008207753676E-002
   8.9450759422247242E-002
  0.23182000023451618     
 -0.11088007258366320     
  0.32435796635941744     
 -0.16356439702133943     
 -0.14117931433062775     
  -4.7843246462756034E-002
   9.4852112459331783E-002
  0.32825307794396585     
  0.32308301740232803     
 -0.17780260633597345     
 -0.15518874078328862     
  0.14276953161241054     
  -3.1184925996734059E-002
 -0.42860751569929828     
  0.10639742615702960     
  -1.7249618113147930E-002
 -0.34741829994574186     
 -0.53908682846296518     
 -0.54066262250534214     
 -0.43077676325793895     
 -0.18776605107126604     
 -0.34513551312457191     
 -0.51647398065402383     
  0.16381932332343732     
 -0.54854266225009884     
  0.19100610102802779     
  0.23835148427688421     
 -0.21704980846919877     
  0.30324463043551864     
   2.5335199512243473E-003
  0.14617617954540457     
  0.17120393432263387     
  0.12203973083243747     
  0.17539847923509028     
  -1.2515118740369613E-002
  -7.3916874738954835E-002
  0.20582617652328308     
  0.15333396646958714     
  0.24323985699263151     
  0.16801229400036299     
  0.43972366595130202     
  0.56958597271361233     
 -0.14450141366940372     
   8.5097313919876544E-002
 -0.39988132591075193     
  0.26866519951207568     
 -0.21083625066714751     
  -1.3948562728535306E-002
   2.3628183032888619E-002
 -0.10004498346992943     
  0.29562111488346221     
  0.27184446733290824     
  0.13830460413423470     
  -3.8347653992387466E-002
 -0.14224019869740812     
  -3.9115987549397935E-003
 -0.49347461095259593     
 -0.27148744111349121     
 -0.34714957052028811     
 -0.25525024172246624     
  0.26499445683783135     
  0.59278514732387577     
  0.50500595105743884     
  -8.8207647664078598E-002
  0.28521994484557106     
  -7.6834398818425853E-003
  0.55702975537921529     
  0.69701535513878410     
  0.60544101083010471     
 -0.11867020556192745     
  0.32288674115047222     
   1.8579537514857858E-002
  -5.5412009989814243E-002
 -0.38964949483295674     
 -0.52701619277798650     
 -0.41688154303542019     
   1.1705973420228027E-002
 -0.14797690908437616     
 -0.77602300518690503     
  0.47095275561480920     
  0.65341214285042237     
 -0.50215438763845821     
  0.52989608524862408     
  0.49998688312735162     
 -0.77676420616991537     
  0.25772304304385329     
 -0.50568052756525994     
 -0.10381885003646288     
   4.5914384474718496E-002
  -3.2843671254220531E-002
 -0.79122508210539866     
 -0.86595599344450114     
 -0.67734141564335715     
 -0.34018488392404223     
  -6.2879158821593450E-002
 -0.29452694076738101     
 -0.27773353159989916     
 -0.38504935969831533     
 -0.31845997634869727     
 -0.52923106182268009     
 -0.34913464752314921     
 -0.34618832435554991     
 -0.43656512391339741     
 -0.62803470164533004     
  -9.7437977482935520E-002
 -0.13979289229214764     
  -8.1498780317122071E-002
 -0.15746348860902151     
  0.12442351162133697     
  0.14139451732206315     
  0.24818869680487898     
  0.14610013362699306     
  0.62060741550393972     
  0.33006108241851428     
  0.81720139229165312     
  0.11780213644817647     
  0.49111595736383334     
  -3.2757236711866200E-002
  -9.8950195940994357E-002
  -3.4481894690055860E-003
  -5.4050684768965670E-008
  -9.1336086914941695E-008
  -0.0000000000000000     
  -5.8179192248894188E-002
  -5.9361463886205418E-003
  -6.1321509088802344E-003
   5.8013459165877738E-002
   2.1805855125825568E-002
  -4.3411080573797353E-003
  -6.3438498067184351E-002
  -1.0640261365102245E-002
  -6.2276066925536007E-002
 -0.11370619326661131     
   3.0978895010832466E-002
   4.9183331118626543E-002
   5.7318606232117209E-002
  0.18800338924102639     
  -1.7155118093136669E-002
  -5.8919533080390281E-002
  -2.8667439914880462E-002
  -2.7675364772333930E-002
  -4.8390367266521010E-002
  -5.3327296502246650E-002
  -2.8091496662981674E-002
   2.1389403982079412E-003
  -1.9874969423133867E-002
  -4.6498551306231539E-002
   5.3394824468543600E-002
  -2.5113916268042137E-002
  -5.9212575017531632E-002
  -3.5167882256711025E-002
  -6.8470399130409788E-003
  -6.2985360321572592E-002
  -6.8470298610272456E-002
  -6.8228878815266666E-002
  -6.0198840470049544E-002
  -4.3700743216541410E-002
  -4.9479987864135482E-002
   4.9301489888035080E-002
   6.2705348207543338E-003
  -2.0282778771245794E-002
   5.6174692993114526E-002
   5.3581877015753836E-002
  -6.9046749912339625E-002
   4.1574431333526882E-002
   2.0412521133481940E-002
  -5.4197802958914576E-002
  -4.4142342292622344E-002
  -3.4200981673544163E-002
  -7.5257085197314014E-002
  -8.2189707282769892E-002
  -8.1505022788445097E-002
  -7.6285771038686223E-002
  -6.9617494705432478E-002
  -1.1053067132069596E-002
  -4.3063417703377987E-002
  -3.7432682352649863E-002
  -3.2262041419504284E-002
  -4.8570926863172909E-002
  -3.9087816207380041E-002
  -2.9580979032176200E-002
  -1.5558816929047750E-002
  -2.6841822201954628E-002
  -3.7924401757284995E-002
  -4.4444597812806581E-002
  -4.2479024797751577E-002
  -4.3079165865419822E-002
  -3.8938231197935262E-002
  -6.0659402537295092E-002
  -7.4581093180293739E-002
  -7.1992950205725798E-002
  -5.5122020138087022E-002
  -3.0806968667142547E-002
   4.2564813322670869E-002
   2.7876799845192628E-002
   5.1509103680833432E-003
  -2.2493681474763407E-002
  -6.9672333213804921E-002
  -7.7756950940645331E-002
  -7.8854505326603860E-002
  -7.6462458962398921E-002
  -6.5743892112002628E-002
   1.7299138269220491E-004
  -5.2396780735270272E-002
  -2.6245299403227604E-002
  -4.2236431591857367E-002
  -5.1679227113376136E-002
  -6.9401591281326377E-002
   8.8202018892247630E-002
  -5.2443075889563859E-002
  -7.4522875557998150E-002
  -6.3012311809898650E-002
  -6.6219740223671247E-002
  -7.0650566744301063E-002
  -4.8246183929885646E-002
  -7.3058688846451683E-002
  -2.7362568084843639E-002
  -7.0175990770398156E-002
  -1.0698441451874117E-002
  -6.3337441092103902E-002
  -3.3404355041516576E-003
  -5.4662798678880055E-002
  -6.9731413449893847E-003
   4.8205859086678376E-003
  -4.0847789148382843E-002
  -3.7753602892755145E-002
  -5.5133867003553057E-002
  -6.7074408374028338E-002
  -7.0957143332795847E-002
   7.2812114604675748E-003
  -6.7396885759131109E-002
  -1.8905444140709181E-002
  -7.6813065724848613E-003
   4.1631063483265861E-003
   8.4101965474934107E-002
  -1.4222495300516780E-002
   8.5500216245383245E-002
   2.0074564146252812E-002
   3.2273973604930964E-002
   5.2638808409257429E-002
   4.5941338678350430E-002
   2.6829827319224449E-002
  -4.8751016794319146E-002
  -7.0898913047767456E-003
  -6.0650474137560993E-003
  -3.3841136864838556E-002
  -1.8534592307957298E-003
  -3.2656031472443267E-002
  -5.7700045764852742E-002
  -7.6832195024780670E-002
  -8.1918561969154841E-002
   4.7273878596041506E-002
  -6.9579095630808885E-002
   1.1210808360615580E-002
  -4.3020494982829012E-002
  -1.1433204684695542E-002
  -1.0178655261202560E-002
  -3.0746178542724410E-002
   4.1488903006914539E-002
   5.1813708060541891E-002
   5.1928749123905382E-002
   4.4154155669791445E-002
   3.0867686083373175E-002
   1.4214614349923330E-002
  -3.1563570183978009E-003
  -1.7746867220838874E-002
  -2.6160372928940114E-002
  -2.6293687082432061E-002
   6.3525792328249283E-003
   1.1834351745562553E-002
   2.3149350674053160E-002
   1.6808316483961971E-002
   5.1097776277610179E-003
   6.9602981612262010E-003
  -2.1078354712021553E-002
  -4.2863192727649142E-003
  -1.1228643907932453E-002
  -1.5881306512635720E-002
 -0.10091147335183753     
   7.4930565165122441E-003
  -8.0794724121990263E-002
  -6.5580116817245807E-002
  -9.1860779338545889E-002
 -0.10518211637237943     
  -9.9659460559789484E-002
  0.14250295409436781     
  -2.3570395016800201E-002
  -9.3209883948474521E-003
  -9.8651440727795747E-002
  -6.6577133072299663E-003
 -0.11529302319915002     
  -1.0878393777015542E-002
 -0.11175058541609641     
  -1.5497844086941704E-002
  -9.0226253198812653E-002
  -6.1090318207767204E-002
 -0.19977324849710806     
  -3.7243083459961995E-002
   9.1021094010892804E-004
  -2.7494757364299443E-002
   1.9284289854371826E-003
  -3.2870826643573117E-002
  -5.5242694018662469E-005
  -4.7312025875514668E-002
  -1.5082230507000110E-003
  -6.1500078764395921E-002
   7.1579415350691796E-004
  -6.7317154907069632E-002
   7.4346043636087846E-003
  -6.1036723394378115E-002
  -4.4590281684709868E-002
  -2.4270997768368784E-002
  -7.3283087088911710E-003
   1.7955897586488714E-003
   4.0368601304835256E-003
   6.7531066989257420E-003
   2.4418201094353713E-003
  -6.0964619803543230E-002
  -7.1229087981524816E-002
 -0.12075580047251175     
 -0.10186168418629096     
   8.6083190373803090E-002
  0.11997474577213971     
 -0.10231009146613379     
 -0.11924802942811601     
 -0.11147082954228420     
  -3.9930116827500077E-002
  -3.1471863937014878E-003
  -3.2434063302829400E-002
   3.8920135564164016E-002
  -6.9300907829628569E-002
  -1.1532460166395409E-002
   3.2110981360593739E-002
 -0.12092221500810166     
   5.3362810459104792E-002
 -0.10252197294271136     
   4.7184523771709418E-002
  -3.6832924413075174E-002
   1.8743865666253103E-002
  -9.6358207372082075E-003
   4.4162735728329582E-003
  -9.2081358693613877E-002
 -0.10867528775579548     
   4.9353467147222286E-003
 -0.10784795705792416     
  -9.0075425259940750E-002
  -6.0368610725060654E-002
  -3.6116793804642673E-003
   2.4846858855116845E-002
   1.6560901415877821E-002
  -8.7950351286600163E-004
  -2.1854701956502506E-002
  -2.5215950509197664E-002
  -1.9799409008956215E-002
  0.17910372927472742     
  0.10673257902958078     
  -7.1296087747721143E-002
  -1.9283430441223118E-002
   4.7413787656023283E-002
  0.14039232523623424     
  -5.6143289362923440E-002
  -6.5655742036122358E-004
   5.2696269055998654E-002
   6.9658914739080577E-002
   2.5920996039136397E-002
  0.13221081572643315     
   6.1702354015836791E-003
  0.16749819000268759     
  -8.7219229371510512E-003
  0.16889263173020425     
  0.14435755643638398     
 -0.20403632404181041     
  0.10977103396442919     
  -9.4697510512576234E-003
   7.9505689368006394E-002
   6.2379683204907927E-003
   6.0679499813137458E-002
   1.5908176346148266E-002
   5.2317911733690603E-002
   1.4241875878902608E-002
   4.8435537111839275E-002
   4.2746896086208755E-002
   3.2719593951126696E-002
   2.1366737931661852E-002
   1.4911806346860684E-002
   5.5297237920146888E-002
   5.5319670773052047E-002
   7.2559537484039927E-002
   5.4921291504242811E-002
   7.0262817183053952E-002
   9.5746509902363053E-002
   7.9720328543623736E-002
   2.1978721869405284E-002
  -7.1194708841995843E-003
  -2.9264926594619149E-002
  -3.0936893743736253E-002
  -3.0087322641147787E-003
  0.15472381995740919     
   9.2985152709523566E-002
   2.3989646785832007E-002
  0.18758491972560709     
  0.18174212171298637     
  0.14496281025372909     
   9.6971137850938041E-002
   9.7598560525581399E-002
   5.7794955878632225E-002
  0.15682137209559410     
   4.1231660021421201E-002
   5.8164359717766373E-002
  0.13660275174396264     
   8.1124724986633978E-002
   9.9035016277874949E-002
   3.4792040864814480E-002
   8.8447934763762004E-002
   1.0761686778699731E-002
   1.0577974022700033E-002
   4.8460453085921271E-002
   2.7917038735237980E-002
   4.6584706982214751E-002
   3.8700505190596771E-002
   7.7709012872408667E-002
   9.3305315129556254E-002
   9.5731864550286996E-002
   6.9466240996811007E-002
   5.7777230467678853E-002
   7.0468884239584001E-002
   3.1338749186475390E-002
   4.5570867041111511E-002
   5.5802653254522494E-002
 -0.19285074023455143     
  0.16806186787366950     
  0.15085834633266362     
  0.17977729312931218     
  0.11830905609472503     
   5.2379624388674856E-002
  0.16943171975154761     
  0.15635475043227742     
  0.10260352712976609     
   4.6402012645353354E-002
   3.0667604828528580E-002
   5.9876696312560179E-002
  -2.9545060094870176E-002
   6.1927939688069172E-002
  -5.8000707777723433E-002
  -5.1340913338281932E-002
  -1.9646284714187980E-002
   3.5503779621185963E-002
   2.1034685886390347E-002
   3.9026866168206116E-002
   5.5214903024850354E-002
   5.3576437063519583E-002
   3.0702128060531748E-002
   1.0438094892762135E-002
  -4.0311585127599352E-003
  -7.2708936736290503E-002
  -5.0231892741969784E-002
   9.3330994391548988E-002
   1.6988319101956605E-002
 -0.11370562629790844     
  -3.8722195151492653E-002
 -0.15010134731175068     
 -0.14108136174203922     
  -9.6030688620008700E-002
  -3.1531301067738909E-002
   3.4909015772360580E-002
 -0.15851308902778768     
  0.11801420077957828     
  0.11939905562062003     
 -0.14730718898562761     
   4.7220865205586549E-002
  -8.0191961928287744E-002
  -5.7565540923574660E-003
  -8.6502553237585954E-003
   5.4262032907618121E-002
  0.10052576466000732     
  0.12569741039236210     
  0.12644090028900609     
  0.10045934399677864     
   4.9949557019110039E-002
  -7.3576315874015169E-002
   5.8721440057476537E-002
   9.2019113913447914E-002
   3.3315437572576337E-002
   5.9483708995754427E-002
   8.5986881241821467E-002
  -4.9425686801485055E-002
  -4.2749709066306131E-002
   4.9536288390397504E-002
 -0.16025289199484205     
 -0.19112656748009516     
 -0.20718357114760760     
 -0.24685794932375055     