# vtk DataFile Version 3.1
Mesh with Data
ASCII
DATASET UNSTRUCTURED_GRID
POINTS         7552 float
      0.200000E+03      0.000000E+00      0.200000E+03
      0.000000E+00      0.000000E+00      0.200000E+03
      0.197500E+03      0.000000E+00      0.200000E+03
      0.195000E+03      0.000000E+00      0.200000E+03
      0.192500E+03      0.000000E+00      0.200000E+03
      0.190000E+03      0.000000E+00      0.200000E+03
      0.187500E+03      0.000000E+00      0.200000E+03
      0.185000E+03      0.000000E+00      0.200000E+03
      0.182500E+03      0.000000E+00      0.200000E+03
      0.180000E+03      0.000000E+00      0.200000E+03
      0.177500E+03      0.000000E+00      0.200000E+03
      0.175000E+03      0.000000E+00      0.200000E+03
      0.172500E+03      0.000000E+00      0.200000E+03
      0.170000E+03      0.000000E+00      0.200000E+03
      0.167500E+03      0.000000E+00      0.200000E+03
      0.165000E+03      0.000000E+00      0.200000E+03
      0.162500E+03      0.000000E+00      0.200000E+03
      0.160000E+03      0.000000E+00      0.200000E+03
      0.157500E+03      0.000000E+00      0.200000E+03
      0.155000E+03      0.000000E+00      0.200000E+03
      0.152500E+03      0.000000E+00      0.200000E+03
      0.150000E+03      0.000000E+00      0.200000E+03
      0.147500E+03      0.000000E+00      0.200000E+03
      0.145000E+03      0.000000E+00      0.200000E+03
      0.142500E+03      0.000000E+00      0.200000E+03
      0.140000E+03      0.000000E+00      0.200000E+03
      0.137500E+03      0.000000E+00      0.200000E+03
      0.135000E+03      0.000000E+00      0.200000E+03
      0.132500E+03      0.000000E+00      0.200000E+03
      0.130000E+03      0.000000E+00      0.200000E+03
      0.127500E+03      0.000000E+00      0.200000E+03
      0.125000E+03      0.000000E+00      0.200000E+03
      0.122500E+03      0.000000E+00      0.200000E+03
      0.120000E+03      0.000000E+00      0.200000E+03
      0.117500E+03      0.000000E+00      0.200000E+03
      0.115000E+03      0.000000E+00      0.200000E+03
      0.112500E+03      0.000000E+00      0.200000E+03
      0.110000E+03      0.000000E+00      0.200000E+03
      0.107500E+03      0.000000E+00      0.200000E+03
      0.105000E+03      0.000000E+00      0.200000E+03
      0.102500E+03      0.000000E+00      0.200000E+03
      0.100000E+03      0.000000E+00      0.200000E+03
      0.975000E+02      0.000000E+00      0.200000E+03
      0.950000E+02      0.000000E+00      0.200000E+03
      0.925000E+02      0.000000E+00      0.200000E+03
      0.900000E+02      0.000000E+00      0.200000E+03
      0.875000E+02      0.000000E+00      0.200000E+03
      0.850000E+02      0.000000E+00      0.200000E+03
      0.825000E+02      0.000000E+00      0.200000E+03
      0.800000E+02      0.000000E+00      0.200000E+03
      0.775000E+02      0.000000E+00      0.200000E+03
      0.750000E+02      0.000000E+00      0.200000E+03
      0.725000E+02      0.000000E+00      0.200000E+03
      0.700000E+02      0.000000E+00      0.200000E+03
      0.675000E+02      0.000000E+00      0.200000E+03
      0.650000E+02      0.000000E+00      0.200000E+03
      0.625000E+02      0.000000E+00      0.200000E+03
      0.600000E+02      0.000000E+00      0.200000E+03
      0.575000E+02      0.000000E+00      0.200000E+03
      0.550000E+02      0.000000E+00      0.200000E+03
      0.525000E+02      0.000000E+00      0.200000E+03
      0.500000E+02      0.000000E+00      0.200000E+03
      0.475000E+02      0.000000E+00      0.200000E+03
      0.450000E+02      0.000000E+00      0.200000E+03
      0.425000E+02      0.000000E+00      0.200000E+03
      0.400000E+02      0.000000E+00      0.200000E+03
      0.375000E+02      0.000000E+00      0.200000E+03
      0.350000E+02      0.000000E+00      0.200000E+03
      0.325000E+02      0.000000E+00      0.200000E+03
      0.300000E+02      0.000000E+00      0.200000E+03
      0.275000E+02      0.000000E+00      0.200000E+03
      0.250000E+02      0.000000E+00      0.200000E+03
      0.225000E+02      0.000000E+00      0.200000E+03
      0.200000E+02      0.000000E+00      0.200000E+03
      0.175000E+02      0.000000E+00      0.200000E+03
      0.150000E+02      0.000000E+00      0.200000E+03
      0.125000E+02      0.000000E+00      0.200000E+03
      0.100000E+02      0.000000E+00      0.200000E+03
      0.750000E+01      0.000000E+00      0.200000E+03
      0.500000E+01      0.000000E+00      0.200000E+03
      0.250000E+01      0.000000E+00      0.200000E+03
      0.000000E+00      0.000000E+00      0.000000E+00
      0.000000E+00      0.000000E+00      0.197500E+03
      0.000000E+00      0.000000E+00      0.195000E+03
      0.000000E+00      0.000000E+00      0.192500E+03
      0.000000E+00      0.000000E+00      0.190000E+03
      0.000000E+00      0.000000E+00      0.187500E+03
      0.000000E+00      0.000000E+00      0.185000E+03
      0.000000E+00      0.000000E+00      0.182500E+03
      0.000000E+00      0.000000E+00      0.180000E+03
      0.000000E+00      0.000000E+00      0.177500E+03
      0.000000E+00      0.000000E+00      0.175000E+03
      0.000000E+00      0.000000E+00      0.172500E+03
      0.000000E+00      0.000000E+00      0.170000E+03
      0.000000E+00      0.000000E+00      0.167500E+03
      0.000000E+00      0.000000E+00      0.165000E+03
      0.000000E+00      0.000000E+00      0.162500E+03
      0.000000E+00      0.000000E+00      0.160000E+03
      0.000000E+00      0.000000E+00      0.157500E+03
      0.000000E+00      0.000000E+00      0.155000E+03
      0.000000E+00      0.000000E+00      0.152500E+03
      0.000000E+00      0.000000E+00      0.150000E+03
      0.000000E+00      0.000000E+00      0.147500E+03
      0.000000E+00      0.000000E+00      0.145000E+03
      0.000000E+00      0.000000E+00      0.142500E+03
      0.000000E+00      0.000000E+00      0.140000E+03
      0.000000E+00      0.000000E+00      0.137500E+03
      0.000000E+00      0.000000E+00      0.135000E+03
      0.000000E+00      0.000000E+00      0.132500E+03
      0.000000E+00      0.000000E+00      0.130000E+03
      0.000000E+00      0.000000E+00      0.127500E+03
      0.000000E+00      0.000000E+00      0.125000E+03
      0.000000E+00      0.000000E+00      0.122500E+03
      0.000000E+00      0.000000E+00      0.120000E+03
      0.000000E+00      0.000000E+00      0.117500E+03
      0.000000E+00      0.000000E+00      0.115000E+03
      0.000000E+00      0.000000E+00      0.112500E+03
      0.000000E+00      0.000000E+00      0.110000E+03
      0.000000E+00      0.000000E+00      0.107500E+03
      0.000000E+00      0.000000E+00      0.105000E+03
      0.000000E+00      0.000000E+00      0.102500E+03
      0.000000E+00      0.000000E+00      0.100000E+03
      0.000000E+00      0.000000E+00      0.975000E+02
      0.000000E+00      0.000000E+00      0.950000E+02
      0.000000E+00      0.000000E+00      0.925000E+02
      0.000000E+00      0.000000E+00      0.900000E+02
      0.000000E+00      0.000000E+00      0.875000E+02
      0.000000E+00      0.000000E+00      0.850000E+02
      0.000000E+00      0.000000E+00      0.825000E+02
      0.000000E+00      0.000000E+00      0.800000E+02
      0.000000E+00      0.000000E+00      0.775000E+02
      0.000000E+00      0.000000E+00      0.750000E+02
      0.000000E+00      0.000000E+00      0.725000E+02
      0.000000E+00      0.000000E+00      0.700000E+02
      0.000000E+00      0.000000E+00      0.675000E+02
      0.000000E+00      0.000000E+00      0.650000E+02
      0.000000E+00      0.000000E+00      0.625000E+02
      0.000000E+00      0.000000E+00      0.600000E+02
      0.000000E+00      0.000000E+00      0.575000E+02
      0.000000E+00      0.000000E+00      0.550000E+02
      0.000000E+00      0.000000E+00      0.525000E+02
      0.000000E+00      0.000000E+00      0.500000E+02
      0.000000E+00      0.000000E+00      0.475000E+02
      0.000000E+00      0.000000E+00      0.450000E+02
      0.000000E+00      0.000000E+00      0.425000E+02
      0.000000E+00      0.000000E+00      0.400000E+02
      0.000000E+00      0.000000E+00      0.375000E+02
      0.000000E+00      0.000000E+00      0.350000E+02
      0.000000E+00      0.000000E+00      0.325000E+02
      0.000000E+00      0.000000E+00      0.300000E+02
      0.000000E+00      0.000000E+00      0.275000E+02
      0.000000E+00      0.000000E+00      0.250000E+02
      0.000000E+00      0.000000E+00      0.225000E+02
      0.000000E+00      0.000000E+00      0.200000E+02
      0.000000E+00      0.000000E+00      0.175000E+02
      0.000000E+00      0.000000E+00      0.150000E+02
      0.000000E+00      0.000000E+00      0.125000E+02
      0.000000E+00      0.000000E+00      0.100000E+02
      0.000000E+00      0.000000E+00      0.750000E+01
      0.000000E+00      0.000000E+00      0.500000E+01
      0.000000E+00      0.000000E+00      0.250000E+01
      0.200000E+03      0.000000E+00      0.000000E+00
      0.250000E+01      0.000000E+00      0.000000E+00
      0.500000E+01      0.000000E+00      0.000000E+00
      0.750000E+01      0.000000E+00      0.000000E+00
      0.100000E+02      0.000000E+00      0.000000E+00
      0.125000E+02      0.000000E+00      0.000000E+00
      0.150000E+02      0.000000E+00      0.000000E+00
      0.175000E+02      0.000000E+00      0.000000E+00
      0.200000E+02      0.000000E+00      0.000000E+00
      0.225000E+02      0.000000E+00      0.000000E+00
      0.250000E+02      0.000000E+00      0.000000E+00
      0.275000E+02      0.000000E+00      0.000000E+00
      0.300000E+02      0.000000E+00      0.000000E+00
      0.325000E+02      0.000000E+00      0.000000E+00
      0.350000E+02      0.000000E+00      0.000000E+00
      0.375000E+02      0.000000E+00      0.000000E+00
      0.400000E+02      0.000000E+00      0.000000E+00
      0.425000E+02      0.000000E+00      0.000000E+00
      0.450000E+02      0.000000E+00      0.000000E+00
[...]
CELL_DATA        14782
SCALARS model_vp float
LOOKUP_TABLE default
   1099.7562953922520     
   1100.4615949652550     
   1100.2609396062389     
   1100.2944825873194     
   1099.5545565199059     
   1100.3967232154876     
   1099.6748153169510     
   1099.7875880234287     
   1099.6689835788814     
   1099.6606352315803     
   1099.6736026386666     
   1099.5919658958092     
   1099.5777340127083     
   1099.6429168880677     
   1099.8115597451767     
   1100.8242738264071     
   1100.4182374643035     
   1099.7596342870688     
   1099.7215302507775     
   1100.0525245159733     
   1099.7524172834781     
   1100.0644708037901     
   1099.5905447186822     
   1099.9507850476996     
   1100.0696258740084     
   1099.9231898491466     
   1099.7627164568471     
   1099.9327225604125     
   1100.0768910311663     
   1100.0809672786149     
   1099.9574804373608     
   1099.7891205899837     
   1099.6758392724876     
   1099.7947252127119     
   1100.8681910214243     
   1099.9887712480263     
   1100.8762979650078     
   1100.9358037340030     
   1100.8494206836165     
   1100.5482765497643     
   1100.3377763943481     
   1100.5544454706724     
   1100.6816359691281     
   1100.6583569392606     
   1099.8756624789733     
   1100.0516750228019     
   1100.1482214718806     
   1099.8885656292671     
   1100.0873625769211     
   1100.0778706194999     
   1100.2255146236937     
   1099.7374691573873     
   1099.8601912618817     
   1099.7226347629507     
   1100.0864080625367     
   1099.8453951551624     
   1100.1831028221966     
   1100.0539636813801     
   1100.1094975516228     
   1100.2682126784057     
   1099.9350676667002     
   1099.7849174615747     
   1100.1631539825839     
   1100.5390355560617     
   1099.8838094209411     
   1100.5970511760527     
   1100.1050796288694     
   1100.7098259211871     
   1100.3317941324706     
   1100.4832757557547     
   1098.1903014982940     
   1099.3788883396103     
   1100.6087684418942     
   1100.7895214369642     
   1100.1374872174536     
   1099.9956262883604     
   1099.8430402344225     
   1100.1586592926403     
   1099.9690447831738     
   1099.8526991881695     
   1100.3925715275132     
   1100.2421964103542     
   1100.3205748640439     
   1100.2332936184491     
   1099.9072069056888     
   1100.2599093648405     
   1100.4573518947141     
   1100.2141124160905     
   1100.4811661224701     
   1099.9809879238635     
   1099.9066763708613     
   1100.0101954817260     
   1098.6178737029113     
   1100.1214921199748     
   1099.9904806584329     
   1100.7476189429603     
   1100.7805580424113     
   1098.9488903413819     
   1100.3689913589481     
   1100.6398399328682     
   1100.3803861209606     
   1100.0905921622430     
   1099.8605647771576     
   1099.8035110606695     
   1099.9829734517382     
   1098.4384053426588     
   1100.3448605745755     
   1100.0670574005992     
   1100.6355303405680     
   1100.0834430797420     
   1100.3876594585299     
   1100.2075781866515     
   1100.1418062768432     
   1100.0232504378496     
   1100.3241299993113     
   1100.3962040391971     
   1100.8719293896811     
   1100.2267227971213     
   1100.9309245589945     
   1100.0849579772250     
   1100.7912097629121     
   1100.1145797301433     
   1100.5059407184324     
   1100.3384495033683     
   1100.6520038000845     
   1099.5969321362570     
   1100.9002043105857     
   1099.4513651468685     
   1100.9666743725120     
   1099.4204296893959     
   1099.5070938706281     
   1100.5314981336985     
   1100.1869663588498     
   1098.9803129267852     
   1099.8739909942017     
   1099.6314038754244     
   1099.4597935117763     
   1099.3514297514071     
   1099.3169864718425     
   1099.3490058648406     
   1099.1431274035999     
   1100.0071658128443     
   1099.8661756185966     
   1099.5335931111713     
   1099.1905220037534     
   1100.3053061745909     
   1100.9537218836738     
   1100.8853289175338     
   1100.2098845082255     
   1100.1621958162793     
   1100.4404108635536     
   1100.3289519492744     
   1100.6266740630176     
   1100.2692602276657     
   1098.7922400727855     
   1100.7825623808026     
   1100.1807521799851     
   1100.4411430338234     
   1100.5842170190776     
   1099.7853236899650     
   1100.8445005270562     
   1099.6429129018741     
   1100.9150942494268     
   1099.5959637292310     
   1100.7268106497731     
   1100.1249259262418     
   1099.4518085442919     
   1099.2902382774366     
   1099.9248854101452     
   1099.6246458545668     
   1099.5213708239669     
   1099.5760281503451     
   1099.6646161682177     
   1099.6584692596834     
   1099.5059038284778     
   1099.2593728825773     
   1098.4149404845732     
   1098.4944079802549     
   1100.2459648026836     
   1100.6943395830247     
   1099.5893126493379     
   1100.1325534603488     
   1100.7866097850354     
   1100.3164717992506     
   1100.6964743091614     
   1100.5877540411302     
   1100.1761676582905     
   1100.3415627415864     
   1099.1714420849069     
   1100.5869751895473     
   1099.0313063332769     
   1100.5098292042242     
   1100.0392031156161     
   1099.4428290836840     
   1099.6593404590328     
   1099.8731488991800     
   1099.5198777778346     
   1098.7419943325092     
   1098.8810939104558     
   1099.2793766283714     
   1099.7483697882733     
   1100.0806826228898     
   1100.1349280608272     
   1099.8902753691580     
   1099.7850441172220     
   1099.6006776980462     
   1099.7192730732500     
   1098.3135261504742     
   1099.2545726251224     
   1100.0353083073251     
   1100.1215928087497     
   1099.7391700594358     
   1100.3353919039539     
   1099.8928185601740     
   1100.1656302636263     
   1099.1793974192608     
   1098.6544778962293     
   1100.3160727839411     
   1098.3379690426784     
   1100.2360101605223     
   1098.6878332860558     
   1099.8323748988782     
   1099.2184801250282     
   1099.2054914624246     
   1099.7496931835037     
   1098.5866387093583     
   1098.2090537242782     
   1100.0909498464121     
   1099.1905251919331     
   1099.4870672442385     
   1099.8918434871016     
   1099.0826705355603     
   1100.1214436993630     
   1100.1412886578278     
   1099.5196735695665     
   1098.4681792930451     
   1098.1634690148733     
   1099.3209465610882     
   1099.1794697241321     
   1098.4068060171498     
   1098.5751605282162     
   1098.1866178463263     
   1099.7101152074315     
   1102.3357178800486     
   1098.9148868010395     
   1099.2009735156380     
   1099.2987195915728     
   1098.2360150407399     
   1099.6094573110158     
   1098.2332895784691     
   1098.5862039672088     
   1099.0861807710387     
   1099.4735019110046     
   1099.5101104944347     
   1099.3734733180017     
   1100.3102948403241     
   1099.8940377389010     
   1098.2019990691679     
   1098.3999818867997     
   1099.0034787955206     
   1100.3776338437758     
   1100.1918370538067     
   1098.8814116305241     
   1098.8754265654547     
   1098.7716117423247     
   1098.4195558070560     
   1099.5903818779736     
   1098.9305577427376     
   1098.5354537036544     
   1100.0688732173655     
   1098.5245983062762     
   1099.4607135026795     
   1098.8955087018776     
   1099.8076806097147     
   1098.6584612293088     
   1100.5711591739428     
   1100.9161237297392     
   1100.6629374080139     
   1099.9335694363544     
   1098.5021726123805     
   1099.9939779555027     
   1101.7453663243266     
   1101.1396935822422     
   1101.3205671041469     
   1101.7700797953630     
   1099.3961751088755     
   1100.0775577866141     
   1101.1008822556466     
   1100.0436372306460     
   1101.0481603745673     
   1098.9230850780773     
   1101.8851331403803     
   1099.2577819800852     
   1100.2865827082903     
   1100.0881187535019     
   1099.1778816786227     
   1101.9963929651972     
   1102.3067468389406     
   1101.9412458946756     
   1101.0311588716870     
   1098.9067285796077     
   1098.3780247571449     
   1101.6913038573168     
   1100.3199622591048     
   1101.1801215547634     
   1102.0115777808721     
   1099.4547551420806     
   1101.6746210151773     
   1102.0755618261421     
   1102.3837762337262     
   1102.6218355926487     
   1102.5712513815613     
   1100.0341508538452     
   1101.0055258810444     
   1101.9925951477301     
   1099.6138472293751     
   1102.5901371891555     
   1099.2022755504067     
   1102.6059857353423     
   1102.1396862018487     
   1101.4641800025649     
   1100.8217083220618     
   1099.9463626636411     
   1101.0668413101914     
   1101.2351392769867     
   1099.8875633398036     
   1100.7017977238529     
   1101.8896164727919     
   1100.5009161671014     
   1101.4465069524185     
   1100.8287432488589     
   1102.1508324442336     
   1100.8241816244740     
   1102.2327873263164     
   1101.2852211029490     
   1101.3466233380962     
   1100.9170000461247     
   1100.4265011028251     
   1100.5157827390242     
   1101.0848143982951     
   1102.1297915835034     
   1102.1732273456309     
   1102.6888692192952     
   1101.3254582432046     
   1103.5116320915345     
   1103.6345069512133     
   1102.2708634237761     
   1103.6339215398484     
   1104.1895563037251     
   1104.0016862024597     
   1104.6524399199104     
   1104.0336473031628     
   1102.4716227860044     
   1104.3431679814596     
   1103.3163765968659     
   1104.3997602606187     
   1104.4486985410742     
   1103.7296173694099     
   1103.2153692260026     
   1103.3944573820668     
   1102.3287037711777     
   1101.8649447654752     
   1101.3663443339885     
   1099.9772855734477     
   1100.0419360934090     
   1099.9865413383222     
   1099.9999998573355     
   1099.9999999011375     
   1100.0000000000000     
   1099.8854410594570     
   1099.9463536193941     
   1099.8728714175527     
   1099.7839980022434     
   1099.7880198065818     
   1099.9028125619802     
   1099.8829647884879     
   1099.8532556830157     
   1100.1809268086831     
   1100.3463947070688     
   1099.8255745648601     
   1099.7874129363977     
   1099.8203152990532     
   1099.7177484088679     
   1099.8401838276602     
   1100.1496224539792     
   1099.9700255160117     
   1100.0075193208108     
   1099.9075602620412     
   1099.8954151282771     
   1099.8190294901733     
   1099.9424360651433     
   1100.1016140714232     
   1100.0792868563399     
   1099.7628762058034     
   1099.8313682703865     
   1099.9956333733992     
   1099.9579079668877     
   1099.8964439334343     
   1099.8737945284804     
   1099.9089437602111     
   1099.9430645228786     
   1099.9642918457905     
   1099.9620212953166     
   1100.0168547078724     
   1099.8853112130225     
   1099.8810241172728     
   1099.9321166065740     
   1099.8057776822443     
   1099.7738682091037     
   1100.1803022174199     
   1099.7832696519145     
   1099.8301941684015     
   1099.8466008999885     
   1099.8314025122327     
   1099.8274378176231     
   1100.0024988960481     
   1099.9832221719296     
   1099.9500270037875     
   1099.9165864063175     
   1099.8929013031161     
   1100.0037320846170     
   1099.9188983862489     
   1099.9302204983594     
   1099.9456087972721     
   1100.1217748799738     
   1100.1015119271767     
   1100.0600370944983     
   1100.1107161210437     
   1100.1749493817094     
   1100.2358245405917     
   1100.2857622217437     
   1100.3190314108119     
   1100.0090192172997     
   1099.9878230148381     
   1100.1714997348047     
   1100.1997127022257     
   1100.1797066556837     
   1100.1054502108757     
   1099.9946245140027     
   1099.7633705990102     
   1099.7843234728775     
   1099.8480631851221     
   1099.9350035948169     
   1100.0699303113499     
   1100.1636584719533     
   1100.0842858877479     
   1100.0658685074070     
   1100.0313403676078     
   1099.8591063444198     
   1099.9993770386670     
   1099.9558121353282     
   1099.9833989147423     
   1100.0477210003698     
   1100.1082535094256     
   1099.6949866178497     
   1100.0389264079236     
   1100.1252395128693     
   1100.0685063454505     
   1100.1048925453633     
   1100.0904644041955     
   1100.0665731705787     
   1100.1009541445801     
   1100.0322174487646     
   1100.0997592088474     
   1100.0177192301553     
   1100.0907498240517     
   1100.0283989164450     
   1100.0812267282729     
   1100.0597065845780     
   1099.6654343362172     
   1100.0917355344566     
   1100.1430483576319     
   1100.1747297605123     
   1100.1910819912157     
   1100.1906535262087     
   1099.7869480979418     
   1100.1752232882427     
   1100.2123272489080     
   1100.1374959491161     
   1100.1138987857976     
   1100.7821352014200     
   1100.5922567657267     
   1099.5454525011669     
   1100.0533418692798     
   1100.2346719321306     
   1100.1111532671582     
   1100.0667689914251     
   1100.0520051291135     
   1100.0820790162502     
   1099.8814245993683     
   1099.9727052946380     
   1100.1191891029091     
   1100.0720551760851     
   1100.0112340990861     
   1100.1308404331273     
   1100.2119986778796     
   1100.2332451381071     
   1100.1721097860272     
   1100.1998009848521     
   1100.2866855725322     
   1100.1379586027197     
   1100.3202372316316     
   1100.0807293858022     
   1100.3312353728718     
   1100.0653136718245     
   1100.1115538454471     
   1100.1776991466218     
   1100.2466940430559     
   1100.3048410550273     
   1100.3441166890086     
   1100.3609632763021     
   1100.3546480799416     
   1100.3259515996897     
   1100.2770172870330     
   1100.0582497111211     
   1099.9890307895578     
   1099.4585761537680     
   1099.4629540476913     
   1099.8966405276178     
   1099.9097186341232     
   1100.0898325636181     
   1100.3223679412599     
   1100.3077790758209     
   1100.2712739363517     
   1100.2994056071655     
   1099.9513541971164     
   1100.1800616601909     
   1100.1689996234115     
   1100.2639848713025     
   1100.2892329542126     
   1100.2460349726332     
   1099.8869246048550     
   1100.0340035646498     
   1100.0338629466055     
   1100.2823455965220     
   1100.0765179950026     
   1100.3112405543470     
   1100.1436322918496     
   1100.2645336197811     
   1100.2139163577247     
   1100.1718950115762     
   1100.0767045283681     
   1100.0565175735433     
   1100.0164332149207     
   1100.3175591026518     
   1100.0090047180947     
   1100.2966609307794     
   1100.0489290212633     
   1100.2621985303995     
   1100.1147905254356     
   1100.2145995531462     
   1100.1822169370710     
   1100.1529905237505     
   1100.2335278418698     
   1100.0777486172399     
   1100.2608935682717     
   1100.2652633983741     
   1100.2523467006658     
   1100.2281260451821     
   1100.1965019760460     
   1100.1588895594205     
   1099.7968905717210     
   1099.8105768228947     
   1100.1248512632219     
   1100.0327391623036     
   1100.1599861804057     
   1100.1558992512007     
   1100.0464589072069     
   1099.9676573489191     
   1100.3000077991662     
   1100.3401764667510     
   1100.2911461945353     
   1100.0574719463671     
   1099.9874933297342     
   1100.0536060621134     
   1100.0548252566546     
   1100.1174634974313     
   1100.0448117480028     
   1099.9474727332295     
   1100.1331218590944     
   1099.9192861961233     
   1100.0862938239925     
   1099.9548865398933     
   1099.9839783142352     
   1100.0240557025206     
   1099.9473526483828     
   1099.9241450729735     
   1100.1186426220145     
   1100.0757234951468     
   1099.8765709618165     
   1100.0094443614023     
   1099.9358560103431     
   1099.8689680571099     
   1099.7918138599814     
   1099.4921198083980     
   1099.5613717015178     
   1099.9876715009832     
   1099.6197719834272     
   1099.7018436562910     
   1099.8019976275777     
   1099.7368551975599     
   1099.8952259285961     
   1100.3059003571636     
   1100.1788526758016     
   1100.0186223989285     
   1099.8513488222100     
   1100.3047011131632     
   1100.1774680204237     
   1100.0859918545311     
   1100.0070920561930     
   1100.0702672623231     
   1099.8697258206444     
   1100.0048815803652     
   1099.8157549026821     
   1099.9085648048026     
   1099.8502345441905     
   1099.9382570544383     
   1100.4999648126648     
   1100.0276788348185     
   1099.5639193909583     
   1100.0750601605516     
   1099.5404555715377     
   1100.0605703729766     
   1099.5523681603513     
   1099.9900731274950     
   1099.5973272729009     
   1099.8852746402790     
   1099.7698912245075     
   1099.6613495088543     
   1099.5701200309761     
   1099.5021667842075     
   1099.4790071013360     
   1099.5007770851446     
   1099.6991692603895     
   1099.4350449089998     
   1099.4687931985104     
   1099.6567896925401     
   1099.7582947141257     
   1099.7649603779687     
   1099.8751344736754     
   1099.9875126278596     
   1100.0513769261613     
   1100.0290476852354     
   1099.8272712869505     
   1099.9933742637554     
   1100.1771438841572     
   1099.7477004580940     
   1099.7746043864443     
   1099.8754989960269     
   1099.9892865733284     
   1099.9936583342753     
   1100.0586389796413     
   1099.8133123763714     
   1099.9840917620625     
   1099.8746634495278     
   1099.8419495524984     
   1099.9680424197468     
   1099.5772209415741     
   1100.0501012256077     
   1099.5162357657073     
   1100.0541426766845     
   1099.9855703936303     
   1099.4228490939531     
   1099.8760482345290     
   1099.4438064739518     
   1099.5055490628267     
   1099.6723485553812     
   1099.6122870641761     
   1099.5746012112156     
   1099.5159443133998     
   1099.4892998261521     
   1099.7625342321846     
   1099.7702490167881     
   1099.7942679300170     
   1099.7589100319785     
   1100.0118843593991     
   1099.6676835047206     
   1099.8047249525905     
   1099.6727749426966     
   1099.7733453330711     
   1099.9204234804881     
   1099.6599574019556     
   1099.6376969724704     
   1099.7389252414118     
   1099.6959179534399     
   1099.8943667160811     
   1099.6819920780511     
   1100.0172211748511     
   1099.7119219668091     
   1100.0505817356618     
   1099.9892134792674     
   1099.8729365908839     
   1099.7988553462242     
   1099.7591967387018     
   1099.7250092527263     
   1099.6947540313356     
   1099.8550366185580     
   1099.9403108903439     
   1099.9889415742484     
   1100.5444734330988     
   1100.3745807901721     
   1100.4150444208135     
   1100.1369972523680     
   1099.9791624274139     
   1099.9926831127816     
   1099.8402771432634     
   1100.0525413159426     
   1099.9998084868450     
   1099.8740513950518     
   1099.7446203307661     
   1099.6743948317135     
   1099.9797471492138     
   1099.8010658749722     
   1099.9618898499959     
   1099.8823209828256     
   1100.2881989903444     
   1099.7419966533828     
   1100.3863654822844     
   1099.6626611845561     
   1099.6823573879974     
   1099.7979811878708     
   1099.9780941522533     
   1100.1809182733862     
   1100.3680098238349     
   1100.5109698797619     
   1100.6025798271462     
   1100.8146129458755     
   1100.7141487468120     
   1100.1955982246134     
   1100.4000574292968     
   1100.5746668916956     
   1100.2012866855137     
   1100.3908490481745     
   1100.6709329195983     
   1100.4237421707105     
   1100.5217251676399     
   1100.5264373567616     
   1100.4841895563020     