# vtk DataFile Version 3.1
Mesh with Data
ASCII
DATASET UNSTRUCTURED_GRID
POINTS         7552 float
      0.200000E+03      0.000000E+00      0.200000E+03
      0.000000E+00      0.000000E+00      0.200000E+03
      0.197500E+03      0.000000E+00      0.200000E+03
      0.195000E+03      0.000000E+00      0.200000E+03
      0.192500E+03      0.000000E+00      0.200000E+03
      0.190000E+03      0.000000E+00      0.200000E+03
      0.187500E+03      0.000000E+00      0.200000E+03
      0.185000E+03      0.000000E+00      0.200000E+03
      0.182500E+03      0.000000E+00      0.200000E+03
      0.180000E+03      0.000000E+00      0.200000E+03
      0.177500E+03      0.000000E+00      0.200000E+03
      0.175000E+03      0.000000E+00      0.200000E+03
      0.172500E+03      0.000000E+00      0.200000E+03
      0.170000E+03      0.000000E+00      0.200000E+03
      0.167500E+03      0.000000E+00      0.200000E+03
      0.165000E+03      0.000000E+00      0.200000E+03
      0.162500E+03      0.000000E+00      0.200000E+03
      0.160000E+03      0.000000E+00      0.200000E+03
      0.157500E+03      0.000000E+00      0.200000E+03
      0.155000E+03      0.000000E+00      0.200000E+03
      0.152500E+03      0.000000E+00      0.200000E+03
      0.150000E+03      0.000000E+00      0.200000E+03
      0.147500E+03      0.000000E+00      0.200000E+03
      0.145000E+03      0.000000E+00      0.200000E+03
      0.142500E+03      0.000000E+00      0.200000E+03
      0.140000E+03      0.000000E+00      0.200000E+03
      0.137500E+03      0.000000E+00      0.200000E+03
      0.135000E+03      0.000000E+00      0.200000E+03
      0.132500E+03      0.000000E+00      0.200000E+03
      0.130000E+03      0.000000E+00      0.200000E+03
      0.127500E+03      0.000000E+00      0.200000E+03
      0.125000E+03      0.000000E+00      0.200000E+03
      0.122500E+03      0.000000E+00      0.200000E+03
      0.120000E+03      0.000000E+00      0.200000E+03
      0.117500E+03      0.000000E+00      0.200000E+03
      0.115000E+03      0.000000E+00      0.200000E+03
      0.112500E+03      0.000000E+00      0.200000E+03
      0.110000E+03      0.000000E+00      0.200000E+03
      0.107500E+03      0.000000E+00      0.200000E+03
      0.105000E+03      0.000000E+00      0.200000E+03
      0.102500E+03      0.000000E+00      0.200000E+03
      0.100000E+03      0.000000E+00      0.200000E+03
      0.975000E+02      0.000000E+00      0.200000E+03
      0.950000E+02      0.000000E+00      0.200000E+03
      0.925000E+02      0.000000E+00      0.200000E+03
      0.900000E+02      0.000000E+00      0.200000E+03
      0.875000E+02      0.000000E+00      0.200000E+03
      0.850000E+02      0.000000E+00      0.200000E+03
      0.825000E+02      0.000000E+00      0.200000E+03
      0.800000E+02      0.000000E+00      0.200000E+03
      0.775000E+02      0.000000E+00      0.200000E+03
      0.750000E+02      0.000000E+00      0.200000E+03
      0.725000E+02      0.000000E+00      0.200000E+03
      0.700000E+02      0.000000E+00      0.200000E+03
      0.675000E+02      0.000000E+00      0.200000E+03
      0.650000E+02      0.000000E+00      0.200000E+03
      0.625000E+02      0.000000E+00      0.200000E+03
      0.600000E+02      0.000000E+00      0.200000E+03
      0.575000E+02      0.000000E+00      0.200000E+03
      0.550000E+02      0.000000E+00      0.200000E+03
      0.525000E+02      0.000000E+00      0.200000E+03
      0.500000E+02      0.000000E+00      0.200000E+03
      0.475000E+02      0.000000E+00      0.200000E+03
      0.450000E+02      0.000000E+00      0.200000E+03
      0.425000E+02      0.000000E+00      0.200000E+03
      0.400000E+02      0.000000E+00      0.200000E+03
      0.375000E+02      0.000000E+00      0.200000E+03
      0.350000E+02      0.000000E+00      0.200000E+03
      0.325000E+02      0.000000E+00      0.200000E+03
      0.300000E+02      0.000000E+00      0.200000E+03
      0.275000E+02      0.000000E+00      0.200000E+03
      0.250000E+02      0.000000E+00      0.200000E+03
      0.225000E+02      0.000000E+00      0.200000E+03
      0.200000E+02      0.000000E+00      0.200000E+03
      0.175000E+02      0.000000E+00      0.200000E+03
      0.150000E+02      0.000000E+00      0.200000E+03
      0.125000E+02      0.000000E+00      0.200000E+03
      0.100000E+02      0.000000E+00      0.200000E+03
      0.750000E+01      0.000000E+00      0.200000E+03
      0.500000E+01      0.000000E+00      0.200000E+03
      0.250000E+01      0.000000E+00      0.200000E+03
      0.000000E+00      0.000000E+00      0.000000E+00
      0.000000E+00      0.000000E+00      0.197500E+03
      0.000000E+00      0.000000E+00      0.195000E+03
      0.000000E+00      0.000000E+00      0.192500E+03
      0.000000E+00      0.000000E+00      0.190000E+03
      0.000000E+00      0.000000E+00      0.187500E+03
      0.000000E+00      0.000000E+00      0.185000E+03
      0.000000E+00      0.000000E+00      0.182500E+03
      0.000000E+00      0.000000E+00      0.180000E+03
      0.000000E+00      0.000000E+00      0.177500E+03
      0.000000E+00      0.000000E+00      0.175000E+03
      0.000000E+00      0.000000E+00      0.172500E+03
      0.000000E+00      0.000000E+00      0.170000E+03
      0.000000E+00      0.000000E+00      0.167500E+03
      0.000000E+00      0.000000E+00      0.165000E+03
      0.000000E+00      0.000000E+00      0.162500E+03
      0.000000E+00      0.000000E+00      0.160000E+03
      0.000000E+00      0.000000E+00      0.157500E+03
      0.000000E+00      0.000000E+00      0.155000E+03
      0.000000E+00      0.000000E+00      0.152500E+03
      0.000000E+00      0.000000E+00      0.150000E+03
      0.000000E+00      0.000000E+00      0.147500E+03
      0.000000E+00      0.000000E+00      0.145000E+03
      0.000000E+00      0.000000E+00      0.142500E+03
      0.000000E+00      0.000000E+00      0.140000E+03
      0.000000E+00      0.000000E+00      0.137500E+03
      0.000000E+00      0.000000E+00      0.135000E+03
      0.000000E+00      0.000000E+00      0.132500E+03
      0.000000E+00      0.000000E+00      0.130000E+03
      0.000000E+00      0.000000E+00      0.127500E+03
      0.000000E+00      0.000000E+00      0.125000E+03
      0.000000E+00      0.000000E+00      0.122500E+03
      0.000000E+00      0.000000E+00      0.120000E+03
      0.000000E+00      0.000000E+00      0.117500E+03
      0.000000E+00      0.000000E+00      0.115000E+03
      0.000000E+00      0.000000E+00      0.112500E+03
      0.000000E+00      0.000000E+00      0.110000E+03
      0.000000E+00      0.000000E+00      0.107500E+03
      0.000000E+00      0.000000E+00      0.105000E+03
      0.000000E+00      0.000000E+00      0.102500E+03
      0.000000E+00      0.000000E+00      0.100000E+03
      0.000000E+00      0.000000E+00      0.975000E+02
      0.000000E+00      0.000000E+00      0.950000E+02
      0.000000E+00      0.000000E+00      0.925000E+02
      0.000000E+00      0.000000E+00      0.900000E+02
      0.000000E+00      0.000000E+00      0.875000E+02
      0.000000E+00      0.000000E+00      0.850000E+02
      0.000000E+00      0.000000E+00      0.825000E+02
      0.000000E+00      0.000000E+00      0.800000E+02
      0.000000E+00      0.000000E+00      0.775000E+02
      0.000000E+00      0.000000E+00      0.750000E+02
      0.000000E+00      0.000000E+00      0.725000E+02
      0.000000E+00      0.000000E+00      0.700000E+02
      0.000000E+00      0.000000E+00      0.675000E+02
      0.000000E+00      0.000000E+00      0.650000E+02
      0.000000E+00      0.000000E+00      0.625000E+02
      0.000000E+00      0.000000E+00      0.600000E+02
      0.000000E+00      0.000000E+00      0.575000E+02
      0.000000E+00      0.000000E+00      0.550000E+02
      0.000000E+00      0.000000E+00      0.525000E+02
      0.000000E+00      0.000000E+00      0.500000E+02
      0.000000E+00      0.000000E+00      0.475000E+02
      0.000000E+00      0.000000E+00      0.450000E+02
      0.000000E+00      0.000000E+00      0.425000E+02
      0.000000E+00      0.000000E+00      0.400000E+02
      0.000000E+00      0.000000E+00      0.375000E+02
      0.000000E+00      0.000000E+00      0.350000E+02
      0.000000E+00      0.000000E+00      0.325000E+02
      0.000000E+00      0.000000E+00      0.300000E+02
      0.000000E+00      0.000000E+00      0.275000E+02
      0.000000E+00      0.000000E+00      0.250000E+02
      0.000000E+00      0.000000E+00      0.225000E+02
      0.000000E+00      0.000000E+00      0.200000E+02
      0.000000E+00      0.000000E+00      0.175000E+02
      0.000000E+00      0.000000E+00      0.150000E+02
      0.000000E+00      0.000000E+00      0.125000E+02
      0.000000E+00      0.000000E+00      0.100000E+02
      0.000000E+00      0.000000E+00      0.750000E+01
      0.000000E+00      0.000000E+00      0.500000E+01
      0.000000E+00      0.000000E+00      0.250000E+01
      0.200000E+03      0.000000E+00      0.000000E+00
      0.250000E+01      0.000000E+00      0.000000E+00
      0.500000E+01      0.000000E+00      0.000000E+00
      0.750000E+01      0.000000E+00      0.000000E+00
      0.100000E+02      0.000000E+00      0.000000E+00
      0.125000E+02      0.000000E+00      0.000000E+00
      0.150000E+02      0.000000E+00      0.000000E+00
      0.175000E+02      0.000000E+00      0.000000E+00
      0.200000E+02      0.000000E+00      0.000000E+00
      0.225000E+02      0.000000E+00      0.000000E+00
      0.250000E+02      0.000000E+00      0.000000E+00
      0.275000E+02      0.000000E+00      0.000000E+00
      0.300000E+02      0.000000E+00      0.000000E+00
      0.325000E+02      0.000000E+00      0.000000E+00
      0.350000E+02      0.000000E+00      0.000000E+00
      0.375000E+02      0.000000E+00      0.000000E+00
      0.400000E+02      0.000000E+00      0.000000E+00
      0.425000E+02      0.000000E+00      0.000000E+00
      0.450000E+02      0.000000E+00      0.000000E+00
[...]
CELL_DATA        14782
SCALARS model_vs float
LOOKUP_TABLE default
   650.13071571406078     
   649.69396361804797     
   649.79807821873669     
   650.04923290684235     
   650.00735757501957     
   649.77274359113073     
   650.12333808838775     
   650.04530048726622     
   650.08759917797420     
   650.11951987594625     
   649.90195221980355     
   649.90709873888488     
   649.92838910246178     
   649.93529519204628     
   649.95888661483866     
   649.81305759946656     
   649.88510067066386     
   650.00080144292360     
   650.02385579040617     
   650.13060766990304     
   650.01499133868936     
   650.04022872841824     
   649.98413016750283     
   650.05559085697189     
   650.09802363952167     
   650.14501949275461     
   650.14002384484536     
   650.06171672257301     
   650.10151869449749     
   650.13183417890309     
   650.14489205693326     
   650.14028210945230     
   650.09974462440709     
   650.07054902566438     
   649.94066666221840     
   650.03094487422629     
   649.82666884368496     
   649.89431909583448     
   649.77094326560325     
   649.78899543038210     
   650.08013847583140     
   650.03146955846921     
   649.96253214014314     
   649.90006309505111     
   650.09191194327047     
   650.10519491588389     
   650.10009011912928     
   650.04390778149525     
   650.07679711063645     
   650.02162251636753     
   649.94967676538761     
   650.06880402200420     
   650.02929342234108     
   650.04750520285916     
   650.06004092054559     
   650.03574531115089     
   650.08111027805285     
   650.03310317426610     
   650.08233841934282     
   650.03004731504529     
   650.06247134945920     
   650.03061453157000     
   649.90183950348649     
   649.76154639547428     
   649.98475664201976     
   649.68703732372489     
   649.98718595492528     
   649.68938717737740     
   650.00404822448240     
   650.02192145035167     
   650.03402754923911     
   650.36831195469199     
   649.70209600973067     
   649.79775913485241     
   649.84251870548997     
   649.91650839707677     
   650.04348146572636     
   650.01284436399374     
   649.87179343590662     
   649.91510868092621     
   650.05667629533650     
   650.05905168229901     
   650.02082924861509     
   650.05392181387469     
   649.97029548457795     
   650.05702718277621     
   649.78178302759636     
   649.85168364594301     
   649.86087024240851     
   649.95499448946464     
   649.89027525122958     
   649.83417172513805     
   650.28943319201858     
   650.07954943292498     
   650.01680072539295     
   649.81075165667949     
   649.86422691328085     
   650.26598094501946     
   649.85864679878102     
   649.94551111215480     
   650.04171919604960     
   650.12666271174328     
   650.16452100483355     
   650.04276694731675     
   649.96798071031208     
   650.05178310493989     
   650.22413577080169     
   649.96624486161807     
   649.76946780571916     
   649.83781137213873     
   650.04727036688075     
   650.00495658049624     
   649.96368663837723     
   649.89782815086801     
   649.79377929529244     
   650.03518710959850     
   649.76188513231671     
   649.98447512199641     
   649.76531683322401     
   649.92572802792938     
   649.77967243898695     
   649.87298828974212     
   649.81775768091995     
   649.83797252757495     
   649.82461881372024     
   650.21635236946599     
   649.82562410614639     
   650.35125666395288     
   649.82580496002083     
   650.37855817581942     
   650.29642131052253     
   649.79301498298116     
   649.79663811306261     
   650.28019032562133     
   649.86842522379550     
   650.03177181561909     
   650.25077371233601     
   650.42818514103271     
   650.46845789303859     
   650.00086590654678     
   650.47137787905444     
   649.84192177684611     
   649.91505570409788     
   650.06138103677881     
   650.19709096360953     
   649.97824680429551     
   650.06250347803461     
   650.00859931577770     
   650.01464389575256     
   649.96486306256327     
   649.93185575568486     
   649.94593272633404     
   649.96185451361646     
   650.04496445000018     
   650.23120406925830     
   650.08870424686825     
   650.00203559535146     
   650.05779487804045     
   649.99489649071290     
   649.84986168698606     
   650.05503650673882     
   649.77831656217609     
   650.13828346120624     
   649.82312590968650     
   650.20748347400877     
   650.25900648142397     
   650.26584735094582     
   650.45968609586839     
   650.16620142373370     
   650.04241123769555     
   649.89671112780070     
   649.79961048149391     
   649.82124333007300     
   649.98520746010877     
   650.22593582740876     
   650.40123973109905     
   649.63822971584216     
   650.13280827018104     
   650.01730143346367     
   649.96312795203744     
   650.31768718466208     
   650.26811538904599     
   650.06969709114708     
   649.68737401390240     
   649.97630996507996     
   650.17859887562520     
   649.89687947777361     
   649.85242465207489     
   650.32310355199695     
   649.87925392948307     
   650.28467410789528     
   650.06772388800709     
   650.15803513077890     
   650.22065010238953     
   650.17070309323344     
   649.91668995410555     
   650.11022586968329     
   650.30701553499375     
   650.33077271959269     
   650.29432733054671     
   650.16438000749042     
   649.97586642377223     
   649.84656712022752     
   649.89359511937175     
   650.71053449846534     
   650.11407758973087     
   650.04256433789510     
   650.05878502299890     
   650.02377169989722     
   649.94727594519850     
   649.67178467046961     
   650.12102398804700     
   649.89956286484880     
   649.98714684965728     
   649.61228592605687     
   649.52267542342793     
   650.03137471437344     
   649.73356903002582     
   650.14651885121873     
   649.88317588108248     
   650.28765613412543     
   649.99488357548194     
   650.41105906220650     
   650.03771033044484     
   650.41679869907011     
   650.02642409779003     
   650.00770770600786     
   649.87502089903535     
   650.73900120982387     
   650.39815358884584     
   650.39291417519644     
   650.01204651025978     
   650.23188047777580     
   650.00938949855390     
   650.17285512822139     
   650.14537733222244     
   650.16940325417306     
   650.31074016357195     
   650.20898203386719     
   650.12312440802657     
   650.22322310031814     
   650.19997658578154     
   650.18742178172147     
   650.53483803842505     
   650.13378694658309     
   650.27560444678431     
   650.14206153848056     
   650.27579940002897     
   650.20167390213908     
   650.26625001926243     
   650.26060744769222     
   650.23837169185470     
   650.18455057086828     
   650.06505966002362     
   650.04575483601161     
   649.11622388706394     
   649.83830561070761     
   649.90068989872350     
   650.11172576528463     
   649.73728481611613     
   650.23719597834395     
   650.19907422857068     
   650.04467602082104     
   650.03094932165891     
   649.79054457104030     
   650.04914603479608     
   650.10966348764043     
   650.18702708843955     
   650.00324297320481     
   650.17084095968596     
   649.83652479101374     
   650.02360848305568     
   649.87491503053093     
   649.74542968133858     
   649.75522390437243     
   649.86410620315189     
   650.03452750692873     
   650.15469350190676     
   650.14466750074803     
   649.83224849000680     
   650.00860888643558     
   649.12177680565992     
   649.14500325035294     
   649.58306745469508     
   649.07171721814916     
   650.29593959973056     
   650.23771575712033     
   650.09787693102783     
   649.26187538226907     
   649.08502308741993     
   649.97254886324288     
   649.25353629414576     
   649.74554933731940     
   649.92993615634975     
   649.45491401746551     
   650.13325811001494     
   648.90088244923652     
   648.81685383505430     
   648.96744566726818     
   649.35364542589150     
   650.18933194690203     
   650.25583928791104     
   651.09648802983247     
   649.09878235229121     
   648.63655272680285     
   648.65067123410881     
   650.36349323960644     
   650.14726644268694     
   649.85007575266411     
   650.91484472153172     
   649.47281042288898     
   649.01395890443177     
   650.40306100364910     
   650.43048154499513     
   650.41153850350372     
   649.84928750155791     
   650.24884505820773     
   650.48689153356702     
   649.85059012595991     
   649.25973219986929     
   648.73322591481008     
   648.62879412983466     
   649.96604273676928     
   648.97084308846502     
   650.73852782590757     
   649.92514520425232     
   649.93313891643015     
   651.04013259824910     
   649.37152138243516     
   649.45662921092583     
   650.05391867637616     
   649.86245834799274     
   649.30743613803429     
   650.48311858184786     
   649.32344387890828     
   650.16076521475429     
   651.43749052647604     
   651.28377967925405     
   650.60173633392139     
   649.69280551731492     
   649.29708965628674     
   650.06005220650275     
   649.92681728004561     
   651.38190405949751     
   648.82026291909028     
   648.69864414370954     
   651.34185552310782     
   649.65935232518871     
   648.43541385737672     
   648.29865983307729     
   649.30387893018246     
   650.79766005490535     
   651.87184881428618     
   648.32356694957548     
   651.60602520632438     
   650.94095865235136     
   649.77090235321850     
   649.00742020759924     
   652.63486748798232     
   652.49496461614820     
   651.95468567990349     
   652.45137780738207     
   652.62344039886489     
   650.25874975028933     
   650.16769944949942     
   650.01514059715157     
   649.99999992218989     
   649.99999988873333     
   650.00000000000000     
   649.94183312903556     
   649.95302362742348     
   649.96531535814779     
   650.00185966425738     
   649.98389601137308     
   649.95942358554748     
   649.93886725060827     
   649.96820186230377     
   649.96397148209030     
   649.93638397819893     
   649.97838272681292     
   649.99048176854797     
   650.01112704135619     
   650.05964878528164     
   649.96718654104609     
   649.96885804217254     
   649.94884494412804     
   649.94382037338789     
   649.95190146627215     
   649.94663408305553     
   650.02048969964062     
   649.96198939484987     
   649.98587375269108     
   649.95430958128384     
   650.09109837063818     
   649.96288203468953     
   649.94672084503827     
   649.95268509071127     
   649.96128618882960     
   649.94247702204495     
   649.94133768510471     
   649.94209984595136     
   649.94484105956371     
   649.94981574138103     
   649.96559823967232     
   650.01721081158485     
   649.96693856736943     
   649.95722066416204     
   650.00878460056265     
   649.99752397869383     
   649.97823798267677     
   649.98483704969465     
   649.97230531371417     
   649.94559915514958     
   649.95060115929789     
   649.95680208144506     
   649.94300306231764     
   649.94077960486970     
   649.93931568598668     
   649.93826761129935     
   649.93789080783472     
   649.94916847886009     
   649.95571888670804     
   649.95653458400579     
   649.95390522993500     
   649.97141065429344     
   649.97104963064794     
   649.94179824293474     
   650.02075050278438     
   650.01396660738044     
   650.00218080206491     
   649.99123750137232     
   649.98723679808950     
   649.96279566602982     
   649.97112296254693     
   650.02449260452522     
   650.01354745570086     
   650.00391840933344     
   649.99665395067234     
   649.99206898689238     
   649.99321777893761     
   649.98200698265816     
   649.97294163172910     
   649.96729668902481     
   649.96748385717717     
   649.95887845146740     
   649.97176608320729     
   649.97662371344052     
   649.98011426734297     
   649.97801579750342     
   649.98069020041919     
   649.97595858721161     
   649.97757539650718     
   649.97812089800414     
   649.98413530591722     
   649.93751501753400     
   649.95473524269244     
   649.99279953425582     
   649.94922260265491     
   650.00218668900152     
   649.94772488890351     
   650.01016338628426     
   649.94980428067981     
   650.01480488926609     
   649.95331641068560     
   650.01470536385364     
   649.95583866394088     
   650.00929082443463     
   649.95608718507242     
   649.99908317425002     
   650.02228540371152     
   649.95206242458858     
   649.97253992263825     
   649.96232971338372     
   649.95769197446680     
   649.95896127569358     
   650.05111332919250     
   649.96385395090488     
   650.02538696100089     
   650.04012674747582     
   650.03987049205102     
   649.77209318104929     
   650.04019004840416     
   650.05753835489918     
   650.03518754207278     
   650.04103927072822     
   650.05754345681351     
   650.05728986001634     
   650.05278512884092     
   649.95453542402220     
   649.98981325107968     
   649.94487620528537     
   650.03544760461114     
   650.04519823798091     
   649.99672796021514     
   649.99919964507308     
   650.00263073634892     
   650.00757331983584     
   650.05231856394653     
   650.01382425529903     
   650.02479148487225     
   650.02075101837636     
   650.00708318279385     
   650.02789168309459     
   649.99304570861352     
   650.04261211482344     
   650.04949191344656     
   650.05412865835456     
   650.05415460418271     
   650.04772792208428     
   650.03506575878646     
   650.01960847199291     
   650.00729684604210     
   650.00370071038446     
   650.01082470375866     
   650.05232702983380     
   650.07060641352246     
   650.03259760579681     
   650.00075526030696     
   650.04096742877402     
   650.04401142132440     
   649.97828516799120     
   650.03442990670487     
   650.02217887288168     
   650.00347856959263     
   649.94592927310771     
   649.94261678641476     
   649.93561304313937     
   649.98828826388308     
   649.97959575536333     
   649.97119130581564     
   649.96431027854817     
   650.14312985122990     
   649.95160712189579     
   649.95139658751077     
   649.96384977760408     
   649.95588139626250     
   649.95062267888488     
   649.96661331424320     
   649.94023522674865     
   649.98337480319219     
   649.93220507994465     
   649.92527129104246     
   650.03193679846174     
   649.91852327956474     
   650.03759648715800     
   649.91248435283251     
   650.03364474892294     
   649.90938160093879     
   650.02909568210316     
   649.91226631143081     
   650.03139505601428     
   649.92363141043336     
   650.04373744971099     
   649.94411071561490     
   650.06241459515297     
   649.97146373865939     
   650.00032348084369     
   650.02364248631579     
   650.03627807055625     
   650.03849331045581     
   650.03676067065828     
   650.04137566978011     
   650.03208561092583     
   649.95504003574638     
   649.97834466178824     
   649.89702469263511     
   649.89832607775224     
   650.14624119342807     
   650.14834098314873     
   649.94309473953615     
   649.93260673484542     
   649.93103864407908     
   649.94169580404218     
   649.93466752432596     
   649.92241377609423     
   650.09149358490561     
   649.90876229033313     
   649.98367886480253     
   649.99902600957716     
   649.91017799495671     
   650.00674688875051     
   649.93911123500709     
   650.00576294731684     
   650.01629703662149     
   649.99602067081105     
   650.04107387547504     
   650.04817331868333     
   649.93176429972584     
   649.91686607914050     
   650.04730516093059     
   649.91895634276989     
   649.94187624052211     
   649.98039373986592     
   650.04643215921431     
   650.04938665596774     
   650.03777904025594     
   650.04008924907441     
   649.96783999259117     
   649.96373496492424     
   649.98689300633828     
   650.02341680343409     
   650.10961699076381     
   649.99497802044982     
   650.03714434864116     
   650.07779582117712     
   650.13084076305643     
   650.01994695593794     
   650.06834235689200     
   650.13429994517594     
   650.11079611880893     
   650.10971738206104     
   650.14033884390108     
   650.07245975958597     
   650.15714466026213     
   650.02779187000795     
   650.16567946205919     
   650.17093915422583     
   649.95728052198263     
   650.17515659527885     
   649.99630455745637     
   650.17649103838858     
   650.03191558446463     
   650.17011174660149     
   650.05243422020794     
   650.15073955145238     
   650.04638906458479     
   650.11579908948102     
   650.06851740524849     
   650.01965562528426     
   649.98532077591983     
   649.97903497583411     
   649.97593134837916     
   650.00412704999189     
   649.95397457680849     
   649.98001929108955     
   650.00407584706204     
   650.13852785848906     
   650.14758198850575     
   649.91803018752603     
   649.88482681862752     
   649.86405028080924     
   649.85198559541664     
   649.84810404506368     
   650.12450857538545     
   650.12026031973585     
   650.09427902194875     
   650.11199163559593     
   650.09216969435624     
   650.07512671991321     
   650.06823426457629     
   650.10373341787010     
   650.07429703895025     
   650.09022114585719     
   650.11469321712821     
   650.13648802307398     
   649.99236409076332     
   649.97433088611399     
   650.10485221769511     
   649.97277051946151     
   650.05344641105376     
   649.98713317702141     
   650.01471023058082     
   649.98999695020166     
   650.05154384140508     
   650.01711996639722     
   650.03073065364515     
   650.12236712212086     
   650.13132011768403     
   650.10824293006647     
   650.00153104040407     
   649.96962717538929     
   650.01234115051420     
   649.97974362844468     
   650.10505193849747     
   650.11580876734604     
   650.05860627006541     
   649.91762417010716     
   650.01820688328019     
   649.96725895834004     
   649.87878448605511     
   649.85569960203838     
   649.93975576362300     
   649.89494541086367     
   649.86410501298678     
   649.96636346363675     
   649.85042971990822     
   650.02602068621297     
   649.85102361633255     
   650.08309548483453     
   649.85855868719500     
   649.86665429018694     
   649.87432608102938     
   650.05050196690331     
   649.88660557769356     
   649.93521246198225     
   649.91129736550545     
   650.07209289396178     
   650.10871928624556     
   650.09901399949138     
   649.82354313859844     
   649.99676131237948     
   650.06312630713069     
   649.98736862123508     
   649.99176769809594     
   649.94105098593855     
   649.91495412214681     
   649.96934991224930     
   649.98812035574076     
   649.99074893034333     
   649.97812863872741     
   649.95705232878663     
   649.99452783462823     
   649.93083640610712     
   649.94674494283322     
   650.06624750851461     
   650.03981730459861     
   650.05384572244509     
   650.07527236196040     
   650.02592303981123     
   649.98957069574169     
   649.95345358791280     
   649.92870859144261     
   649.92747183101471     
   649.95590899638819     
   650.00371555172455     
   650.02979874233404     
   649.88852812089408     
   649.84139976246684     
   649.92957915157604     
   649.87032959571695     
   649.83461607482798     
   649.97437354531326     
   649.90057984073439     
   649.77146120190525     
   650.01025141796345     
   649.86719085447260     
   650.01956362220176     
   649.97583346374040     