# vtk DataFile Version 3.1
Mesh with Data
ASCII
DATASET UNSTRUCTURED_GRID
POINTS         7552 float
      0.200000E+03      0.000000E+00      0.200000E+03
      0.000000E+00      0.000000E+00      0.200000E+03
      0.197500E+03      0.000000E+00      0.200000E+03
      0.195000E+03      0.000000E+00      0.200000E+03
      0.192500E+03      0.000000E+00      0.200000E+03
      0.190000E+03      0.000000E+00      0.200000E+03
      0.187500E+03      0.000000E+00      0.200000E+03
      0.185000E+03      0.000000E+00      0.200000E+03
      0.182500E+03      0.000000E+00      0.200000E+03
      0.180000E+03      0.000000E+00      0.200000E+03
      0.177500E+03      0.000000E+00      0.200000E+03
      0.175000E+03      0.000000E+00      0.200000E+03
      0.172500E+03      0.000000E+00      0.200000E+03
      0.170000E+03      0.000000E+00      0.200000E+03
      0.167500E+03      0.000000E+00      0.200000E+03
      0.165000E+03      0.000000E+00      0.200000E+03
      0.162500E+03      0.000000E+00      0.200000E+03
      0.160000E+03      0.000000E+00      0.200000E+03
      0.157500E+03      0.000000E+00      0.200000E+03
      0.155000E+03      0.000000E+00      0.200000E+03
      0.152500E+03      0.000000E+00      0.200000E+03
      0.150000E+03      0.000000E+00      0.200000E+03
      0.147500E+03      0.000000E+00      0.200000E+03
      0.145000E+03      0.000000E+00      0.200000E+03
      0.142500E+03      0.000000E+00      0.200000E+03
      0.140000E+03      0.000000E+00      0.200000E+03
      0.137500E+03      0.000000E+00      0.200000E+03
      0.135000E+03      0.000000E+00      0.200000E+03
      0.132500E+03      0.000000E+00      0.200000E+03
      0.130000E+03      0.000000E+00      0.200000E+03
      0.127500E+03      0.000000E+00      0.200000E+03
      0.125000E+03      0.000000E+00      0.200000E+03
      0.122500E+03      0.000000E+00      0.200000E+03
      0.120000E+03      0.000000E+00      0.200000E+03
      0.117500E+03      0.000000E+00      0.200000E+03
      0.115000E+03      0.000000E+00      0.200000E+03
      0.112500E+03      0.000000E+00      0.200000E+03
      0.110000E+03      0.000000E+00      0.200000E+03
      0.107500E+03      0.000000E+00      0.200000E+03
      0.105000E+03      0.000000E+00      0.200000E+03
      0.102500E+03      0.000000E+00      0.200000E+03
      0.100000E+03      0.000000E+00      0.200000E+03
      0.975000E+02      0.000000E+00      0.200000E+03
      0.950000E+02      0.000000E+00      0.200000E+03
      0.925000E+02      0.000000E+00      0.200000E+03
      0.900000E+02      0.000000E+00      0.200000E+03
      0.875000E+02      0.000000E+00      0.200000E+03
      0.850000E+02      0.000000E+00      0.200000E+03
      0.825000E+02      0.000000E+00      0.200000E+03
      0.800000E+02      0.000000E+00      0.200000E+03
      0.775000E+02      0.000000E+00      0.200000E+03
      0.750000E+02      0.000000E+00      0.200000E+03
      0.725000E+02      0.000000E+00      0.200000E+03
      0.700000E+02      0.000000E+00      0.200000E+03
      0.675000E+02      0.000000E+00      0.200000E+03
      0.650000E+02      0.000000E+00      0.200000E+03
      0.625000E+02      0.000000E+00      0.200000E+03
      0.600000E+02      0.000000E+00      0.200000E+03
      0.575000E+02      0.000000E+00      0.200000E+03
      0.550000E+02      0.000000E+00      0.200000E+03
      0.525000E+02      0.000000E+00      0.200000E+03
      0.500000E+02      0.000000E+00      0.200000E+03
      0.475000E+02      0.000000E+00      0.200000E+03
      0.450000E+02      0.000000E+00      0.200000E+03
      0.425000E+02      0.000000E+00      0.200000E+03
      0.400000E+02      0.000000E+00      0.200000E+03
      0.375000E+02      0.000000E+00      0.200000E+03
      0.350000E+02      0.000000E+00      0.200000E+03
      0.325000E+02      0.000000E+00      0.200000E+03
      0.300000E+02      0.000000E+00      0.200000E+03
      0.275000E+02      0.000000E+00      0.200000E+03
      0.250000E+02      0.000000E+00      0.200000E+03
      0.225000E+02      0.000000E+00      0.200000E+03
      0.200000E+02      0.000000E+00      0.200000E+03
      0.175000E+02      0.000000E+00      0.200000E+03
      0.150000E+02      0.000000E+00      0.200000E+03
      0.125000E+02      0.000000E+00      0.200000E+03
      0.100000E+02      0.000000E+00      0.200000E+03
      0.750000E+01      0.000000E+00      0.200000E+03
      0.500000E+01      0.000000E+00      0.200000E+03
      0.250000E+01      0.000000E+00      0.200000E+03
      0.000000E+00      0.000000E+00      0.000000E+00
      0.000000E+00      0.000000E+00      0.197500E+03
      0.000000E+00      0.000000E+00      0.195000E+03
      0.000000E+00      0.000000E+00      0.192500E+03
      0.000000E+00      0.000000E+00      0.190000E+03
      0.000000E+00      0.000000E+00      0.187500E+03
      0.000000E+00      0.000000E+00      0.185000E+03
      0.000000E+00      0.000000E+00      0.182500E+03
      0.000000E+00      0.000000E+00      0.180000E+03
      0.000000E+00      0.000000E+00      0.177500E+03
      0.000000E+00      0.000000E+00      0.175000E+03
      0.000000E+00      0.000000E+00      0.172500E+03
      0.000000E+00      0.000000E+00      0.170000E+03
      0.000000E+00      0.000000E+00      0.167500E+03
      0.000000E+00      0.000000E+00      0.165000E+03
      0.000000E+00      0.000000E+00      0.162500E+03
      0.000000E+00      0.000000E+00      0.160000E+03
      0.000000E+00      0.000000E+00      0.157500E+03
      0.000000E+00      0.000000E+00      0.155000E+03
      0.000000E+00      0.000000E+00      0.152500E+03
      0.000000E+00      0.000000E+00      0.150000E+03
      0.000000E+00      0.000000E+00      0.147500E+03
      0.000000E+00      0.000000E+00      0.145000E+03
      0.000000E+00      0.000000E+00      0.142500E+03
      0.000000E+00      0.000000E+00      0.140000E+03
      0.000000E+00      0.000000E+00      0.137500E+03
      0.000000E+00      0.000000E+00      0.135000E+03
      0.000000E+00      0.000000E+00      0.132500E+03
      0.000000E+00      0.000000E+00      0.130000E+03
      0.000000E+00      0.000000E+00      0.127500E+03
      0.000000E+00      0.000000E+00      0.125000E+03
      0.000000E+00      0.000000E+00      0.122500E+03
      0.000000E+00      0.000000E+00      0.120000E+03
      0.000000E+00      0.000000E+00      0.117500E+03
      0.000000E+00      0.000000E+00      0.115000E+03
      0.000000E+00      0.000000E+00      0.112500E+03
      0.000000E+00      0.000000E+00      0.110000E+03
      0.000000E+00      0.000000E+00      0.107500E+03
      0.000000E+00      0.000000E+00      0.105000E+03
      0.000000E+00      0.000000E+00      0.102500E+03
      0.000000E+00      0.000000E+00      0.100000E+03
      0.000000E+00      0.000000E+00      0.975000E+02
      0.000000E+00      0.000000E+00      0.950000E+02
      0.000000E+00      0.000000E+00      0.925000E+02
      0.000000E+00      0.000000E+00      0.900000E+02
      0.000000E+00      0.000000E+00      0.875000E+02
      0.000000E+00      0.000000E+00      0.850000E+02
      0.000000E+00      0.000000E+00      0.825000E+02
      0.000000E+00      0.000000E+00      0.800000E+02
      0.000000E+00      0.000000E+00      0.775000E+02
      0.000000E+00      0.000000E+00      0.750000E+02
      0.000000E+00      0.000000E+00      0.725000E+02
      0.000000E+00      0.000000E+00      0.700000E+02
      0.000000E+00      0.000000E+00      0.675000E+02
      0.000000E+00      0.000000E+00      0.650000E+02
      0.000000E+00      0.000000E+00      0.625000E+02
      0.000000E+00      0.000000E+00      0.600000E+02
      0.000000E+00      0.000000E+00      0.575000E+02
      0.000000E+00      0.000000E+00      0.550000E+02
      0.000000E+00      0.000000E+00      0.525000E+02
      0.000000E+00      0.000000E+00      0.500000E+02
      0.000000E+00      0.000000E+00      0.475000E+02
      0.000000E+00      0.000000E+00      0.450000E+02
      0.000000E+00      0.000000E+00      0.425000E+02
      0.000000E+00      0.000000E+00      0.400000E+02
      0.000000E+00      0.000000E+00      0.375000E+02
      0.000000E+00      0.000000E+00      0.350000E+02
      0.000000E+00      0.000000E+00      0.325000E+02
      0.000000E+00      0.000000E+00      0.300000E+02
      0.000000E+00      0.000000E+00      0.275000E+02
      0.000000E+00      0.000000E+00      0.250000E+02
      0.000000E+00      0.000000E+00      0.225000E+02
      0.000000E+00      0.000000E+00      0.200000E+02
      0.000000E+00      0.000000E+00      0.175000E+02
      0.000000E+00      0.000000E+00      0.150000E+02
      0.000000E+00      0.000000E+00      0.125000E+02
      0.000000E+00      0.000000E+00      0.100000E+02
      0.000000E+00      0.000000E+00      0.750000E+01
      0.000000E+00      0.000000E+00      0.500000E+01
      0.000000E+00      0.000000E+00      0.250000E+01
      0.200000E+03      0.000000E+00      0.000000E+00
      0.250000E+01      0.000000E+00      0.000000E+00
      0.500000E+01      0.000000E+00      0.000000E+00
      0.750000E+01      0.000000E+00      0.000000E+00
      0.100000E+02      0.000000E+00      0.000000E+00
      0.125000E+02      0.000000E+00      0.000000E+00
      0.150000E+02      0.000000E+00      0.000000E+00
      0.175000E+02      0.000000E+00      0.000000E+00
      0.200000E+02      0.000000E+00      0.000000E+00
      0.225000E+02      0.000000E+00      0.000000E+00
      0.250000E+02      0.000000E+00      0.000000E+00
      0.275000E+02      0.000000E+00      0.000000E+00
      0.300000E+02      0.000000E+00      0.000000E+00
      0.325000E+02      0.000000E+00      0.000000E+00
      0.350000E+02      0.000000E+00      0.000000E+00
      0.375000E+02      0.000000E+00      0.000000E+00
      0.400000E+02      0.000000E+00      0.000000E+00
      0.425000E+02      0.000000E+00      0.000000E+00
      0.450000E+02      0.000000E+00      0.000000E+00
[...]
CELL_DATA        14782
SCALARS cvs float
LOOKUP_TABLE default
   7.6655069664513756E-002
 -0.13908431612849803     
 -0.17689552175393544     
   5.2235823825712818E-002
 -0.20546716458059894     
  -8.4255514511498555E-002
   8.1798332419564718E-002
   8.8868701282603685E-002
  0.10210911367940301     
  0.10688616513512482     
  -5.6093422876099863E-002
  -6.2841601464579400E-002
  -3.3027228516756754E-002
  -1.7234115664924429E-002
   6.6146229232216108E-003
 -0.27213449571910764     
  -2.4812737802241219E-002
  -2.2383546043203278E-003
   2.8290266311899175E-002
   9.2058574982983116E-002
   3.7460043949858524E-002
   1.8669026647691628E-002
   2.1003185423291534E-002
   5.5884747869582217E-002
   7.5483683602618798E-002
  0.10246316359179891     
  0.10687800913674568     
   3.9190287229085574E-002
   5.2984516690004257E-002
   6.5583283048401997E-002
   7.3972771566833920E-002
   7.8618995749251588E-002
   8.4330040060295333E-002
   8.3628618001241051E-002
  -3.0908941805512704E-003
   7.3839761460401734E-002
  -7.5690184007754235E-002
  -3.5909631658463184E-002
 -0.11639001800191276     
 -0.21073722532643935     
   4.1996812782242876E-003
  -5.1979181166376502E-002
 -0.10483399606402606     
 -0.13608061631848264     
   2.7926813274638689E-002
   2.7772341082617072E-002
   2.1253650549396604E-002
  -2.7562382641406688E-003
   9.2984117965590335E-003
   2.2724339047479364E-002
  0.14269535740900613     
   2.4798074038088466E-002
  -1.6898156673984831E-002
   2.2474866138022007E-002
   4.2142324792224933E-004
   2.3517750214293850E-002
   1.6488772430440196E-002
   2.8028459200058736E-002
   2.3861951453958044E-002
   3.3036359277587690E-002
   2.0590091878983072E-002
   1.0048858961101914E-002
 -0.22996423584057274     
  -8.6514758744265396E-002
  -1.1473986749167050E-002
 -0.14062822663902239     
  -1.4362494422085603E-002
 -0.15454672229358526     
  -8.9317799018191722E-003
   3.4778814466577719E-003
  0.11748634199274732     
  0.20649026142142007     
 -0.14808927024452212     
  -9.8084738945255240E-002
  -5.5853668561805320E-002
  -1.6468947819365615E-002
 -0.12817043100741340     
   2.1332487829217019E-002
  -8.8978629502603448E-002
  -4.9394731888271363E-002
   5.8472117229383919E-002
   3.9527355618989152E-002
   8.0461853457675092E-004
   4.0973784402558451E-002
  -9.8162880101702564E-003
   6.0341847838674821E-002
 -0.11051109414378678     
 -0.12187280978513060     
 -0.14032448911085432     
  -2.4557262789174111E-002
  -7.7257973899522853E-002
 -0.13002140766193399     
 -0.10001257898316367     
   3.7308747943087112E-002
   2.8060299628972711E-002
 -0.22256637317926498     
 -0.20397224922248730     
  0.40763672368879544     
  -4.0180206872165197E-002
 -0.15191316496470311     
  -7.4035460933214253E-002
   8.6661788306483800E-003
   6.6390360003112645E-002
   4.6781863532281559E-002
   2.0969940964638036E-002
  0.17013601419336863     
  0.23908925581410620     
  -9.3615445799566266E-002
 -0.26144709562690488     
 -0.17752488441045103     
  -7.8600458355699954E-002
  -9.1460969687740770E-002
  -6.2975863237290042E-002
 -0.12372002796733222     
 -0.22373770926433079     
  -1.5237804853445447E-002
 -0.28935472463530293     
  -8.0214773590416857E-002
 -0.30622747788362181     
 -0.13244964229084713     
 -0.30871015357045106     
 -0.17133427565480419     
 -0.28777558865190700     
 -0.19896807456328922     
 -0.21752055107610196     
   2.3531860430729967E-003
 -0.23120375506006902     
  0.11951989922614581     
 -0.24746060830460770     
  0.17846573238482139     
  0.17492112954334621     
 -0.30022410613178951     
 -0.31078013232429308     
  0.63128117032289788     
 -0.27293788424885695     
 -0.16689077467808644     
  -9.9720724286272711E-003
  0.13823109213284912     
  0.21333375406834407     
   2.7635077960572893E-002
  0.20734929549114564     
 -0.10928120518244294     
  -1.2371896620088030E-002
  0.14686998195937445     
  0.29110434685742903     
   3.5973686281847772E-002
   6.4213924121506755E-002
   3.0245495196089080E-002
   9.5021122210061398E-002
  -8.1113751197404924E-002
  0.19294968263718876     
  -5.4913999714298029E-002
  -1.5342988465299384E-002
  -4.7331144004651139E-002
  0.39472833300241023     
   6.3314902348922758E-002
  -1.2047948625289242E-002
   1.0277392761010223E-002
   9.6328128372809019E-002
 -0.21999054204334953     
  0.16584391685777003     
 -0.31490975313461667     
  0.22915876651466230     
 -0.31897233393845714     
  0.26127227329343378     
  0.56362023618567547     
  -1.4979304360412615E-002
  0.15251324868690555     
  0.15268282557782098     
   1.2691397619207193E-002
 -0.14616412689516911     
 -0.26700331771969121     
 -0.28875470699959233     
 -0.18551900698914844     
  -4.6900506412483056E-003
  0.14391487239538703     
 -0.36729587427790833     
  0.38569541116582384     
  0.26330782837524480     
  0.23210154724527526     
  0.43509224093923282     
  0.42141056529658022     
  0.32311692694053684     
  -9.9185180296486333E-002
  0.25439847862428794     
  0.38326174953446357     
  0.14051723051071791     
  0.15956329049375464     
  0.42504669163164771     
  0.18986879640048021     
  0.38270512477161295     
  0.27420080083056386     
  0.31005622156657198     
  0.34979459681413755     
  0.29424659199553882     
  -8.1782455903219919E-002
   4.2861259350741455E-002
  0.47792744914359370     
  0.52285774196973089     
  0.48849408801867644     
  0.34762756303087744     
  0.14311612968433707     
  -1.4671327449563676E-002
  -2.7737728551044241E-002
  0.80275627637424829     
 -0.14160984194571505     
  0.13491256510400107     
  0.13981960498922386     
 -0.10238008560188427     
 -0.38788784158840717     
  -5.9811199082484390E-002
 -0.33984413945287928     
 -0.11344345007768603     
 -0.11804422616883911     
 -0.27609484089243863     
   9.4897008616514900E-002
  -2.5116225522625317E-002
 -0.29147312478052789     
  0.37618483802293318     
 -0.29276503076185445     
  0.62090161417624734     
 -0.30186000415586078     
  0.78006849712523141     
 -0.30185415718074210     
  0.76747967309468346     
 -0.24799673950301915     
 -0.10699255405299872     
   4.6220538361861754E-002
  0.67385591579229875     
  0.77101620251102232     
  0.73102440638262212     
 -0.69486764315776717     
  0.50383522225318189     
  0.20091161289762288     
  0.24526596707208026     
   6.5107932892160339E-003
  -9.6558115944030271E-002
  0.40124736729426891     
 -0.31990997439757407     
  0.40005320680909662     
 -0.28581330639744484     
 -0.20656063605354080     
 -0.18029506803365353     
  0.29572426034783728     
   8.6153621584702855E-002
 -0.13586248028824754     
  0.15970463889351555     
  -3.6539695386678422E-002
  0.31556848771512852     
   3.4409555362392166E-002
   5.7854100195948485E-002
   6.1278512451647671E-003
  -8.5720889709692133E-002
 -0.10698814669675924     
  -1.2295270467240965E-002
  0.30316652990209791     
   3.9658153943022967E-004
 -0.11800316868478775     
 -0.19893976028859300     
  0.41278030382150321     
 -0.35219336281224767     
  -5.7237578058981518E-002
  0.36191033064643774     
  0.33193712311643320     
  0.20729675386068452     
  0.41066167642248674     
  0.20273452875138959     
  0.58257796228540382     
  0.52612280806934497     
 -0.58841392421812344     
  0.49025486347043523     
 -0.67534492058126716     
 -0.57760442427955949     
  0.24420492713121342     
 -0.38319763426666309     
  -4.3488242883678724E-003
 -0.27913802612838579     
 -0.52102281941057182     
 -0.67710525675469713     
 -0.55793266344850723     
   9.8115212170979058E-004
 -0.52784539588197599     
 -0.53842615774611124     
 -0.42655047858888184     
 -0.44472015928577785     
 -0.82306807898080125     
 -0.75814202780750217     
 -0.76585384126649303     
  -7.5890469891636780E-002
 -0.28466360790208911     
 -0.13991121014418231     
 -0.48906715911740173     
 -0.22891910292412349     
 -0.32784574444446618     
 -0.36087907847233547     
 -0.25550989546708208     
 -0.67306703295196435     
 -0.67217644691990430     
 -0.50951406630175544     
 -0.24519296044420930     
  0.13123680475817345     
  0.16382101849194231     
  0.81019274737895697     
  0.21756136983543584     
 -0.21416890093671348     
 -0.55529738911522186     
 -0.95859401396616328     
  0.17465632745199189     
 -0.80985761809428436     
  0.37049483732944744     
 -0.82144405717281055     
 -0.74987750758789540     
 -0.75888046347973082     
 -0.64491980677537075     
 -0.59815941618534862     
  0.57578178646225542     
 -0.57425057501044929     
  0.71529080098455955     
 -0.55849774617246495     
 -0.53142417345866244     
 -0.41630787988725398     
 -0.12602412499584303     
  0.67122706918738317     
 -0.28504101065476378     
  0.13496921211288004     
 -0.25901166827151256     
   1.2235664885931037E-002
  0.33183199781259776     
  0.45432723044833973     
  0.58318348036545498     
 -0.15779966582914223     
  0.68007715668937663     
 -0.35963853773741489     
  0.77528688514945909     
   4.0028681997818449E-002
  0.35749855801066338     
  0.69938440924088607     
  0.39021621819563074     
  -6.2321647019172144E-002
 -0.44868292099172563     
 -0.29188721056280281     
  -5.5340351577752994E-003
 -0.72815431404840636     
   7.0206693778114171E-002
  -1.1291914139131403     
  -1.0269053128103915     
   9.6679302080352247E-002
 -0.88035906909685524     
  -1.3490256415707425     
  -1.2258101051601531     
 -0.80121478063722040     
  0.13338406579730933     
   1.1728095142445114     
  -1.0818075886642515     
   1.1894714907364057     
  0.32552245984062028     
 -0.39448057437625433     
 -0.52743014577416814     
   1.0790371152633540     
   1.3562993141063457     
  0.74031521439203862     
   1.0847466140575015     
   1.0055491502616869     
   8.8548299554109908E-002
   4.1335709231854423E-002
   4.8674768590993419E-003
  -1.5139013442434248E-008
  -5.3872607918575811E-008
  -0.0000000000000000     
  -7.0350893993540803E-002
  -3.0714781853929281E-002
  -2.3136265692696473E-002
   6.1953344228256628E-003
  -1.2670053435256725E-002
  -2.5665341424028206E-002
  -7.6175401547849797E-002
  -2.5150866735734488E-002
  -2.1233896126191618E-002
  -7.4053900769274761E-002
  -1.9663011559994954E-002
  -5.7361974854508082E-003
   1.4929484693918917E-002
   4.8542811911058997E-002
  -3.1780522390654070E-002
  -3.6886845697301850E-002
  -3.9010833041079072E-002
  -4.4238288511556083E-002
  -5.1410639900923677E-002
  -6.1535912627555776E-002
   2.6964773701207416E-002
  -7.0449123551605583E-002
  -1.6778315793397038E-002
  -4.7025194290250961E-002
   6.0263459244020920E-002
  -4.1578924921270313E-002
  -6.2995789997953550E-002
  -5.3346998475622701E-002
  -4.1006290987985507E-002
  -7.3450940347469823E-002
  -7.4205997170865290E-002
  -7.1920281353732046E-002
  -6.6678448387205713E-002
  -5.8441903088508801E-002
  -4.0873235451698561E-002
   1.9816079152356621E-002
  -3.4039097574360570E-002
  -4.7354392524252130E-002
   1.2610177292005951E-002
   1.5498246299039654E-003
  -3.9983074618715864E-002
  -1.2068604527805376E-002
  -2.6778248587174099E-002
  -6.9438042878918138E-002
  -6.2182256768428243E-002
  -5.2392898425131187E-002
  -6.9904218118151659E-002
  -7.4524958198974089E-002
  -7.7447947066218603E-002
  -7.8979243766593238E-002
  -7.8811539564054359E-002
  -3.5159282068776235E-002
  -4.2415782314597798E-002
  -3.6805249522821479E-002
  -3.5793774305745964E-002
  -3.6168951724203709E-002
  -3.9193622827468078E-002
  -4.8192480529736917E-002
  -9.0115535139167514E-004
  -5.1682770621018946E-003
  -1.3758207336358099E-002
  -2.0656478797059730E-002
  -1.9887917847573548E-002
  -4.6083479311002269E-002
  -3.8832727534826056E-002
   1.1533457439648384E-002
  -1.7804542041842918E-004
  -8.3698934689536986E-003
  -1.2173492587262191E-002
  -1.2132887059955475E-002
  -2.4120166329784573E-003
  -1.4945787676992598E-002
  -2.6566461517937970E-002
  -3.5611840396201133E-002
  -4.2065702235059871E-002
  -5.5995108896974712E-002
  -3.9921022264757536E-002
  -3.6062773139448057E-002
  -3.2553718867207981E-002
  -2.1275835669800767E-002
  -3.1291152813921218E-002
  -2.6932975347070891E-002
  -3.3425693738101961E-002
  -2.8415024873610958E-002
  -2.5324953954286914E-002
  -1.6861089145475235E-002
  -5.2927676574372917E-002
  -1.8292143931234808E-002
  -5.6923488891605950E-002
  -9.0481156027694288E-003
  -5.6533893580434265E-002
   3.4346291366862264E-005
  -5.2415176430236944E-002
   6.5472322049398880E-003
  -4.7151884034563260E-002
   8.5257763451784020E-003
  -4.3664839895102121E-002
   4.9142031604535990E-003
  -4.3642192396050480E-002
  -4.0745519264163785E-003
   6.2545724401510225E-002
  -5.2190857640486053E-002
  -3.0221127846818095E-002
  -4.0863585027767504E-002
  -4.5957111337990089E-002
  -4.5101700808302746E-002
   7.0657936256837056E-002
  -4.0807049366424521E-002
   5.0488351833688494E-003
   1.6997531186372351E-002
   3.2497464362124376E-002
 -0.10367628729595932     
   4.8025552706897234E-002
   3.1695355322770666E-002
   3.0625294465726635E-002
   4.8279835743622386E-002
   6.2120225933502769E-002
   5.8562593656678888E-002
   5.0112641463570695E-002
  -5.5493685017040106E-002
  -9.7682212664223049E-003
  -3.4275468540902201E-002
   2.5041962334232098E-002
   3.8449078334119875E-002
  -8.9174972057472473E-003
  -1.1857593042598358E-002
  -1.2473001999048784E-002
  -9.1650860530401671E-003
   5.9043859691163471E-002
  -1.9929942136334092E-003
   3.0611830212401124E-002
   7.8322270314613810E-003
   9.6265341545166399E-003
   1.8974821574722179E-002
  -9.0068665214107085E-003
   4.2323664234480508E-002
   5.3090608776663821E-002
   6.0880519072321893E-002
   6.2864497503275010E-002
   5.6632805126499569E-002
   4.1935425032266972E-002
   2.2178558667862031E-002
   3.8915507064419368E-003
  -6.2469914575482037E-003
  -5.0325450466880452E-003
   4.0953065450725135E-002
   5.8187702124228288E-002
   3.4175155454850226E-002
  -9.1033898528311945E-003
   5.1163418217136443E-002
   5.5893780207208997E-002
  -3.4281316654301321E-003
   4.0920140544833762E-002
   2.7593944272243175E-002
   6.8112056407441356E-003
  -5.2506926008179654E-002
  -3.4745604965688411E-002
  -5.9567869479846304E-002
  -2.7844499566691203E-002
  -4.1011171899542023E-002
  -5.0428757256679474E-002
  -5.4979226963481412E-002
  0.17190086754769041     
  -5.4363481628142793E-002
  -5.1777883704567859E-002
  -5.8291063853446484E-002
  -4.5588365307930201E-002
  -7.1213182491299903E-002
  -3.3592917732236938E-002
  -7.7438149942662793E-002
  -1.5316984955711601E-002
  -7.9220984512308509E-002
  -8.0010977050995968E-002
   6.3743306525142429E-002
  -8.2316973287062029E-002
   4.2965116116442222E-002
  -8.6341846576683368E-002
   3.5119954905156056E-002
  -8.9644005122516246E-002
   2.4503031791863715E-002
  -8.8154215478405212E-002
   2.0151801890318410E-002
  -7.8079279081217562E-002
   2.7132385790241985E-002
  -5.7706932364931782E-002
   4.3098840023083063E-002
  -2.8826392309216329E-002
   2.6884915384839123E-003
   2.8436167154447987E-002
   4.1596540979545078E-002
   4.1407507682570843E-002
   3.4843821216208604E-002
   6.3259042555652817E-002
   5.4404601635917926E-002
  -3.4008177397002293E-002
  -2.2234721375876877E-002
 -0.10582759241242655     
  -9.9439468856113294E-002
  0.16269014270129348     
  0.17029167213725582     
  -7.7277368460074880E-002
  -8.3118197639926242E-002
  -7.5302050544690857E-002
  -4.3700974307994134E-002
  -4.4973113961852274E-002
  -6.2353423391423773E-002
   5.7743870234875948E-002
  -8.2525978352230009E-002
   9.4223398423302438E-003
   3.1219173220611442E-002
  -9.5177935486555260E-002
   4.0308216904565250E-002
  -6.5412139595044300E-002
   3.6506345386482647E-002
   2.1344180363201154E-002
   2.1223602784521973E-002
   5.1118309324439511E-002
   6.0577022615769832E-002
  -6.4296390645165222E-002
  -8.4969751304332417E-002
   5.6940558401959648E-002
  -8.6202239800203945E-002
  -6.2997404549724856E-002
  -2.0236762255393413E-002
   6.0484141465554100E-002
   6.7759853049847482E-002
   7.2459193997201021E-002
   9.7263392474355517E-003
  -3.9800348507509450E-002
  -4.1698269723749293E-002
  -1.3452021470690554E-002
   1.8228650310819459E-003
  0.14787233364310792     
   8.7946087940763244E-003
   6.4282056265468651E-002
  0.11364581564309163     
  0.16592670612915233     
   3.6843837951497246E-002
   9.6497610248741761E-002
  0.14710912902381007     
  0.14435207096717889     
  0.12018020028417258     
  0.17224888846788777     
   8.0632502395345085E-002
  0.18193404120990306     
   3.2464898354611346E-002
  0.18098484362073394     
  0.17752733111423474     
   1.4770509253484644E-002
  0.17591998825669611     
  -7.8076268061223544E-003
  0.17502387402763114     
   3.7609661177151213E-002
  0.16952572217305051     
   7.1540206297673326E-002
  0.15258280356627468     
   7.8141693755984509E-002
  0.11931943115356182     
   7.0859015428091643E-002
   1.7292241450729037E-002
  -2.3468159577123063E-002
  -3.3748666022550007E-002
  -6.0512430349865212E-002
  -1.7636399054823865E-002
  -6.2064244950712208E-002
  -5.0370275891076365E-002
  -2.0393332157720816E-002
  0.12670524119552629     
  0.13075585514487306     
  -9.8983181552280156E-002
 -0.12421756761709485     
 -0.13956195302528995     
 -0.14909155795042003     
 -0.15326679237546151     
  0.13507123380330849     
  0.13919776533293676     
  0.11493616458863677     
  0.11036030881142411     
   7.7945790818775146E-002
   5.0539845346234548E-002
   3.6808945452600363E-002
  0.11368081085194602     
   3.9862006138403287E-002
   9.0638262426453994E-002
   8.4842188817998265E-002
  0.11282806809626303     
  -3.6979400650950289E-002
  -5.9898134034667552E-002
   9.3595497357641194E-002
  -6.4053518140782362E-002
   3.7240809075695006E-002
  -5.0518085386797085E-002
  -2.2245426311315892E-002
  -3.7422633273797225E-002
   1.6873133810593990E-002
   4.3092468492470191E-003
   3.9807181110237920E-002
   9.6235545375096931E-002
  0.10908667443611987     
   8.6660064102908982E-002
  -3.2034734809584429E-002
  -6.9740697820143166E-002
  -1.8341800702442658E-002
  -5.9457867809938850E-002
   6.8329324282750070E-002
   7.6431254653693700E-002
   8.4144801497078953E-002
  -9.3226399838221549E-002
   1.0437302237674823E-002
  -4.3811430041838004E-002
 -0.12902916645559184     
 -0.14831278066368861     
  -6.3780599767626511E-002
 -0.10172387538076239     
 -0.12387123839118175     
  -5.9902294565250008E-002
 -0.12982582734561290     
  -8.5193241299187719E-003
 -0.12423986063270868     
   4.3808357932349704E-002
 -0.11503520548356089     
 -0.10850421764373948     
 -0.10565704871203230     
   1.4843783493349097E-002
 -0.10187008154911403     
 -0.10995309111486815     
  -8.9557236589550254E-002
   3.2099169450256392E-002
   6.7827711310230937E-002
   6.3638614461486651E-002
  -4.8281717500221324E-002
  -3.2169782807324986E-003
   5.6211499194006941E-002
  -1.6994789107936954E-002
   6.2346831322690630E-002
  -1.0302852417482557E-002
  -3.6953513521245637E-002
   1.5503196805680755E-002
   3.2116648512292276E-002
   3.5165103702817176E-002
   2.5263598722974311E-002
   6.0751249178572150E-003
   3.5533550817107698E-002
  -3.5124242979081510E-002
  -3.7862020866572504E-002
   9.2271056258672060E-002
   2.3026161837565957E-002
   8.7683545927174325E-002
   5.8765727176297439E-002
   7.1872039697130546E-002
   4.6522622620997128E-002
   1.4665241722893060E-002
  -1.6021980302909113E-002
  -3.2431848135666116E-002
  -2.2346229218155364E-002
   1.2736568103664893E-002
   4.4655297078172680E-002
  -3.9471330819562354E-002
  -6.7870070852171324E-002
   2.1624154307489304E-002
  -2.5570434432120218E-002
  -6.1864143180143077E-002
   4.8461083940728011E-002
   5.1725890400713126E-003
  -9.2288870639446602E-002
   3.1930169001384526E-002
  -2.6354341067808956E-002
   1.4581021592124167E-002
   9.4542217897203434E-003