# vtk DataFile Version 3.1
Mesh with Data
ASCII
DATASET UNSTRUCTURED_GRID
POINTS         7552 float
      0.200000E+03      0.000000E+00      0.200000E+03
      0.000000E+00      0.000000E+00      0.200000E+03
      0.197500E+03      0.000000E+00      0.200000E+03
      0.195000E+03      0.000000E+00      0.200000E+03
      0.192500E+03      0.000000E+00      0.200000E+03
      0.190000E+03      0.000000E+00      0.200000E+03
      0.187500E+03      0.000000E+00      0.200000E+03
      0.185000E+03      0.000000E+00      0.200000E+03
      0.182500E+03      0.000000E+00      0.200000E+03
      0.180000E+03      0.000000E+00      0.200000E+03
      0.177500E+03      0.000000E+00      0.200000E+03
      0.175000E+03      0.000000E+00      0.200000E+03
      0.172500E+03      0.000000E+00      0.200000E+03
      0.170000E+03      0.000000E+00      0.200000E+03
      0.167500E+03      0.000000E+00      0.200000E+03
      0.165000E+03      0.000000E+00      0.200000E+03
      0.162500E+03      0.000000E+00      0.200000E+03
      0.160000E+03      0.000000E+00      0.200000E+03
      0.157500E+03      0.000000E+00      0.200000E+03
      0.155000E+03      0.000000E+00      0.200000E+03
      0.152500E+03      0.000000E+00      0.200000E+03
      0.150000E+03      0.000000E+00      0.200000E+03
      0.147500E+03      0.000000E+00      0.200000E+03
      0.145000E+03      0.000000E+00      0.200000E+03
      0.142500E+03      0.000000E+00      0.200000E+03
      0.140000E+03      0.000000E+00      0.200000E+03
      0.137500E+03      0.000000E+00      0.200000E+03
      0.135000E+03      0.000000E+00      0.200000E+03
      0.132500E+03      0.000000E+00      0.200000E+03
      0.130000E+03      0.000000E+00      0.200000E+03
      0.127500E+03      0.000000E+00      0.200000E+03
      0.125000E+03      0.000000E+00      0.200000E+03
      0.122500E+03      0.000000E+00      0.200000E+03
      0.120000E+03      0.000000E+00      0.200000E+03
      0.117500E+03      0.000000E+00      0.200000E+03
      0.115000E+03      0.000000E+00      0.200000E+03
      0.112500E+03      0.000000E+00      0.200000E+03
      0.110000E+03      0.000000E+00      0.200000E+03
      0.107500E+03      0.000000E+00      0.200000E+03
      0.105000E+03      0.000000E+00      0.200000E+03
      0.102500E+03      0.000000E+00      0.200000E+03
      0.100000E+03      0.000000E+00      0.200000E+03
      0.975000E+02      0.000000E+00      0.200000E+03
      0.950000E+02      0.000000E+00      0.200000E+03
      0.925000E+02      0.000000E+00      0.200000E+03
      0.900000E+02      0.000000E+00      0.200000E+03
      0.875000E+02      0.000000E+00      0.200000E+03
      0.850000E+02      0.000000E+00      0.200000E+03
      0.825000E+02      0.000000E+00      0.200000E+03
      0.800000E+02      0.000000E+00      0.200000E+03
      0.775000E+02      0.000000E+00      0.200000E+03
      0.750000E+02      0.000000E+00      0.200000E+03
      0.725000E+02      0.000000E+00      0.200000E+03
      0.700000E+02      0.000000E+00      0.200000E+03
      0.675000E+02      0.000000E+00      0.200000E+03
      0.650000E+02      0.000000E+00      0.200000E+03
      0.625000E+02      0.000000E+00      0.200000E+03
      0.600000E+02      0.000000E+00      0.200000E+03
      0.575000E+02      0.000000E+00      0.200000E+03
      0.550000E+02      0.000000E+00      0.200000E+03
      0.525000E+02      0.000000E+00      0.200000E+03
      0.500000E+02      0.000000E+00      0.200000E+03
      0.475000E+02      0.000000E+00      0.200000E+03
      0.450000E+02      0.000000E+00      0.200000E+03
      0.425000E+02      0.000000E+00      0.200000E+03
      0.400000E+02      0.000000E+00      0.200000E+03
      0.375000E+02      0.000000E+00      0.200000E+03
      0.350000E+02      0.000000E+00      0.200000E+03
      0.325000E+02      0.000000E+00      0.200000E+03
      0.300000E+02      0.000000E+00      0.200000E+03
      0.275000E+02      0.000000E+00      0.200000E+03
      0.250000E+02      0.000000E+00      0.200000E+03
      0.225000E+02      0.000000E+00      0.200000E+03
      0.200000E+02      0.000000E+00      0.200000E+03
      0.175000E+02      0.000000E+00      0.200000E+03
      0.150000E+02      0.000000E+00      0.200000E+03
      0.125000E+02      0.000000E+00      0.200000E+03
      0.100000E+02      0.000000E+00      0.200000E+03
      0.750000E+01      0.000000E+00      0.200000E+03
      0.500000E+01      0.000000E+00      0.200000E+03
      0.250000E+01      0.000000E+00      0.200000E+03
      0.000000E+00      0.000000E+00      0.000000E+00
      0.000000E+00      0.000000E+00      0.197500E+03
      0.000000E+00      0.000000E+00      0.195000E+03
      0.000000E+00      0.000000E+00      0.192500E+03
      0.000000E+00      0.000000E+00      0.190000E+03
      0.000000E+00      0.000000E+00      0.187500E+03
      0.000000E+00      0.000000E+00      0.185000E+03
      0.000000E+00      0.000000E+00      0.182500E+03
      0.000000E+00      0.000000E+00      0.180000E+03
      0.000000E+00      0.000000E+00      0.177500E+03
      0.000000E+00      0.000000E+00      0.175000E+03
      0.000000E+00      0.000000E+00      0.172500E+03
      0.000000E+00      0.000000E+00      0.170000E+03
      0.000000E+00      0.000000E+00      0.167500E+03
      0.000000E+00      0.000000E+00      0.165000E+03
      0.000000E+00      0.000000E+00      0.162500E+03
      0.000000E+00      0.000000E+00      0.160000E+03
      0.000000E+00      0.000000E+00      0.157500E+03
      0.000000E+00      0.000000E+00      0.155000E+03
      0.000000E+00      0.000000E+00      0.152500E+03
      0.000000E+00      0.000000E+00      0.150000E+03
      0.000000E+00      0.000000E+00      0.147500E+03
      0.000000E+00      0.000000E+00      0.145000E+03
      0.000000E+00      0.000000E+00      0.142500E+03
      0.000000E+00      0.000000E+00      0.140000E+03
      0.000000E+00      0.000000E+00      0.137500E+03
      0.000000E+00      0.000000E+00      0.135000E+03
      0.000000E+00      0.000000E+00      0.132500E+03
      0.000000E+00      0.000000E+00      0.130000E+03
      0.000000E+00      0.000000E+00      0.127500E+03
      0.000000E+00      0.000000E+00      0.125000E+03
      0.000000E+00      0.000000E+00      0.122500E+03
      0.000000E+00      0.000000E+00      0.120000E+03
      0.000000E+00      0.000000E+00      0.117500E+03
      0.000000E+00      0.000000E+00      0.115000E+03
      0.000000E+00      0.000000E+00      0.112500E+03
      0.000000E+00      0.000000E+00      0.110000E+03
      0.000000E+00      0.000000E+00      0.107500E+03
      0.000000E+00      0.000000E+00      0.105000E+03
      0.000000E+00      0.000000E+00      0.102500E+03
      0.000000E+00      0.000000E+00      0.100000E+03
      0.000000E+00      0.000000E+00      0.975000E+02
      0.000000E+00      0.000000E+00      0.950000E+02
      0.000000E+00      0.000000E+00      0.925000E+02
      0.000000E+00      0.000000E+00      0.900000E+02
      0.000000E+00      0.000000E+00      0.875000E+02
      0.000000E+00      0.000000E+00      0.850000E+02
      0.000000E+00      0.000000E+00      0.825000E+02
      0.000000E+00      0.000000E+00      0.800000E+02
      0.000000E+00      0.000000E+00      0.775000E+02
      0.000000E+00      0.000000E+00      0.750000E+02
      0.000000E+00      0.000000E+00      0.725000E+02
      0.000000E+00      0.000000E+00      0.700000E+02
      0.000000E+00      0.000000E+00      0.675000E+02
      0.000000E+00      0.000000E+00      0.650000E+02
      0.000000E+00      0.000000E+00      0.625000E+02
      0.000000E+00      0.000000E+00      0.600000E+02
      0.000000E+00      0.000000E+00      0.575000E+02
      0.000000E+00      0.000000E+00      0.550000E+02
      0.000000E+00      0.000000E+00      0.525000E+02
      0.000000E+00      0.000000E+00      0.500000E+02
      0.000000E+00      0.000000E+00      0.475000E+02
      0.000000E+00      0.000000E+00      0.450000E+02
      0.000000E+00      0.000000E+00      0.425000E+02
      0.000000E+00      0.000000E+00      0.400000E+02
      0.000000E+00      0.000000E+00      0.375000E+02
      0.000000E+00      0.000000E+00      0.350000E+02
      0.000000E+00      0.000000E+00      0.325000E+02
      0.000000E+00      0.000000E+00      0.300000E+02
      0.000000E+00      0.000000E+00      0.275000E+02
      0.000000E+00      0.000000E+00      0.250000E+02
      0.000000E+00      0.000000E+00      0.225000E+02
      0.000000E+00      0.000000E+00      0.200000E+02
      0.000000E+00      0.000000E+00      0.175000E+02
      0.000000E+00      0.000000E+00      0.150000E+02
      0.000000E+00      0.000000E+00      0.125000E+02
      0.000000E+00      0.000000E+00      0.100000E+02
      0.000000E+00      0.000000E+00      0.750000E+01
      0.000000E+00      0.000000E+00      0.500000E+01
      0.000000E+00      0.000000E+00      0.250000E+01
      0.200000E+03      0.000000E+00      0.000000E+00
      0.250000E+01      0.000000E+00      0.000000E+00
      0.500000E+01      0.000000E+00      0.000000E+00
      0.750000E+01      0.000000E+00      0.000000E+00
      0.100000E+02      0.000000E+00      0.000000E+00
      0.125000E+02      0.000000E+00      0.000000E+00
      0.150000E+02      0.000000E+00      0.000000E+00
      0.175000E+02      0.000000E+00      0.000000E+00
      0.200000E+02      0.000000E+00      0.000000E+00
      0.225000E+02      0.000000E+00      0.000000E+00
      0.250000E+02      0.000000E+00      0.000000E+00
      0.275000E+02      0.000000E+00      0.000000E+00
      0.300000E+02      0.000000E+00      0.000000E+00
      0.325000E+02      0.000000E+00      0.000000E+00
      0.350000E+02      0.000000E+00      0.000000E+00
      0.375000E+02      0.000000E+00      0.000000E+00
      0.400000E+02      0.000000E+00      0.000000E+00
      0.425000E+02      0.000000E+00      0.000000E+00
      0.450000E+02      0.000000E+00      0.000000E+00
[...]
CELL_DATA        14782
SCALARS model_vs float
LOOKUP_TABLE default
   650.20624649355773     
   649.55691923391328     
   649.62377720112545     
   650.10070259447662     
   649.80490397123685     
   649.68972384154574     
   650.20393669505836     
   650.13286576259804     
   650.18821067025647     
   650.22483835527737     
   649.84668151203402     
   649.84517882720479     
   649.89584628010948     
   649.91831384696616     
   649.96540422192788     
   649.54491446582097     
   649.86065185813447     
   649.99859591798190     
   650.05173112697639     
   650.22131603346293     
   650.05190196093395     
   650.05862393882398     
   650.00482530187401     
   650.11065595034472     
   650.17240021352723     
   650.24597984214415     
   650.24533428780114     
   650.10033221083847     
   650.15372609401300     
   650.19645556027149     
   650.21777987925793     
   650.21774801037964     
   650.18283780648414     
   650.15295107335055     
   649.93762110179011     
   650.10370163728680     
   649.75208879798947     
   649.85893614618112     
   649.65626032520777     
   649.58134906116493     
   650.08427656091794     
   649.98025274934901     
   649.85923573098000     
   649.76597835584289     
   650.11942915752297     
   650.13255992356835     
   650.12103204508639     
   650.04119196862757     
   650.08595914380862     
   650.04401356042138     
   650.09027922811924     
   650.09323838584100     
   650.01264310878412     
   650.06965043299101     
   650.06045616283222     
   650.05891812951074     
   650.09735721175298     
   650.06072054361618     
   650.10585039058651     
   650.06259913423867     
   650.08275944907655     
   650.04051600519347     
   649.67524812387558     
   649.67630053770472     
   649.97345094277648     
   649.54847167341893     
   649.97303411338407     
   649.53710717222430     
   649.99524744586165     
   650.02534832215304     
   650.14979073398069     
   650.57177364968413     
   649.55617874599784     
   649.70111299231144     
   649.78748423558864     
   649.90028099722269     
   649.91719089414630     
   650.03386397093425     
   649.78411984465799     
   649.86643841529485     
   650.11429080945152     
   650.09799929521512     
   650.02162206591186     
   650.09429464098719     
   649.96062317081680     
   650.11648400439913     
   649.67289278562976     
   649.73159832917486     
   649.72260387475092     
   649.93079740492874     
   649.81415041021751     
   649.70605732494289     
   650.19088748482454     
   650.11631097820214     
   650.04444946817239     
   649.59144963621816     
   649.66324629912265     
   650.66763891267294     
   649.81905590989811     
   649.79582603827976     
   649.96876960381553     
   650.13520178483009     
   650.22993762586145     
   650.08886266720037     
   649.98864308781685     
   650.21942375582921     
   650.45971833487749     
   649.87400246166806     
   649.51185532142654     
   649.66289022265312     
   649.96982273146148     
   649.91483705723067     
   649.90163443412484     
   649.77592270883201     
   649.57332311858363     
   650.02017279569282     
   649.47677433666456     
   649.90543684829879     
   649.46358075485171     
   649.79522100771408     
   649.47549009801673     
   649.70416695213999     
   649.53420286026437     
   649.64192269248201     
   649.61028860893043     
   650.21867104162834     
   649.59781138718699     
   650.46902358000227     
   649.58197382501794     
   650.55440637398169     
   650.46877689408291     
   649.49719422567000     
   649.49041615345391     
   650.90221257522455     
   649.59949048481769     
   649.86732880672946     
   650.24094789902676     
   650.56438881529971     
   650.67866270804041     
   650.02809566432995     
   650.67568600877269     
   649.73424338521568     
   649.90286526451359     
   650.20609689537287     
   650.48392571999693     
   650.01369286909119     
   650.12577558468956     
   650.03840120413849     
   650.10827135523573     
   649.88493899644902     
   650.12197546984146     
   649.89182414327661     
   649.94673655881365     
   649.99832750587109     
   650.62014297195151     
   650.15109051758873     
   649.99016435245790     
   650.06792153358765     
   650.08981178666556     
   649.63309771827267     
   650.21844801193879     
   649.46802555038084     
   650.36408118520751     
   649.50883190244394     
   650.46492370006490     
   650.81436017121450     
   650.25108774613932     
   650.60996245211390     
   650.31664486970737     
   650.05491649219834     
   649.75269077158430     
   649.53652326751194     
   649.53672375167412     
   649.80240943682463     
   650.22131456514444     
   650.54304382234568     
   649.27632092348665     
   650.51284673575458     
   650.27674735937387     
   650.19182529537818     
   650.74639798298267     
   650.68334517912228     
   650.38807490317276     
   649.58964357004368     
   650.22697721354007     
   650.55623937377334     
   650.03533575991742     
   650.00964764805974     
   650.74191613780533     
   650.06633794436993     
   650.66176614522522     
   650.33790302052955     
   650.46354379713694     
   650.56531430629423     
   650.46063400784874     
   649.83610699109249     
   650.15245848838879     
   650.77793328296229     
   650.84596177349101     
   650.77565673784045     
   650.50690896122103     
   650.11688348736561     
   649.83211097527362     
   649.86626421656126     
   651.50151685052560     
   649.97454472134518     
   650.17549815754762     
   650.19655391160609     
   649.92289321000328     
   649.56507720530078     
   649.61285071464499     
   649.78616429940962     
   649.78778327544023     
   649.87083396315597     
   649.34024053311748     
   649.61618058967588     
   650.00662686533951     
   649.44637090453432     
   650.51718623401734     
   649.59470479783045     
   650.89945106321318     
   649.69745091365519     
   651.17968639379353     
   649.74028342983638     
   651.17302184530922     
   649.78206469495683     
   649.90228439815155     
   649.92056352663349     
   651.40297376651381     
   651.15786139467366     
   651.11321673948862     
   649.32737040254005     
   650.72832601283733     
   650.20735436635130     
   650.41452381051590     
   650.15179263253367     
   650.07426134384775     
   650.70610248670926     
   649.89376413841899     
   650.51731008527884     
   649.94160178137258     
   649.99644554833310     
   650.00977107854385     
   650.82622494861869     
   650.21867696394600     
   650.14173464423288     
   650.29942380972614     
   650.23979562771206     
   650.51261398693839     
   650.30015489404809     
   650.31761300915105     
   650.24440966668419     
   650.10008693855696     
   649.95964069488139     
   650.03363989871423     
   649.41494391198978     
   649.83869637563600     
   649.78441746752128     
   649.91570382918451     
   650.14401092366597     
   649.89016819083724     
   650.14267614679693     
   650.40127825862919     
   650.35801796516375     
   649.99480092974954     
   650.45378458858579     
   650.30942453481646     
   650.76106045376969     
   650.52164920489304     
   649.59105722773529     
   650.31958914868937     
   649.35816876062086     
   649.30578225695660     
   649.98605288583019     
   649.37764658112167     
   649.85982116251682     
   649.75948356276456     
   649.64131245799160     
   649.47749326076666     
   649.28249895404679     
   650.00957564812381     
   648.60167325113559     
   648.61447412065445     
   649.16277313778164     
   648.63351971293719     
   649.48494335569194     
   649.49069330211137     
   649.34325577074810     
   649.18709798825728     
   648.80453460448791     
   649.83468971304194     
   648.77164222091426     
   649.51998776179323     
   649.60689888378568     
   649.09932790658684     
   649.88149574572174     
   648.23768720494252     
   648.15453611468013     
   648.46540457904223     
   649.11204867944593     
   650.31864391811871     
   650.41725756433857     
   651.89479778312204     
   649.31315277715680     
   648.42552501392561     
   648.10351832124820     
   649.41895880225206     
   650.31936110797460     
   649.05209621336053     
   651.27990555815404     
   648.66341438133679     
   648.27507975497440     
   649.65531094351013     
   649.79502069508749     
   649.82215221547835     
   650.41662436971228     
   649.68301694342142     
   651.19169125525252     
   649.30028379527243     
   648.73610235724436     
   648.32302396970442     
   648.50461838466856     
   650.62742500381353     
   648.68998273809859     
   650.87151746173447     
   649.66993242721139     
   649.94519512237378     
   651.36709765830960     
   649.81918505311762     
   650.03125921327921     
   649.89843343819700     
   650.53256089943000     
   648.95307237303712     
   651.24703443275439     
   649.36288546531296     
   650.51302038683548     
   652.12661715344461     
   651.66827264575511     
   650.54032875058101     
   649.25070337171940     
   649.00948351835643     
   650.05459933833549     
   649.20934271280805     
   651.45108104061785     
   647.70763321217919     
   647.68680032065197     
   651.43711684214782     
   648.79190537070713     
   647.10617420349479     
   647.09082852898814     
   648.51441546493709     
   650.92908779355628     
   653.02745688039283     
   647.25762609536855     
   652.77805086983062     
   651.26170671563170     
   649.38220757530712     
   648.48772581276216     
   653.69807850296968     
   653.83137126053475     
   652.68414278510443     
   653.52021458067020     
   653.61424128749650     
   650.34599932318406     
   650.20842889313576     
   650.01993668334603     
   649.99999990727292     
   649.99999983565090     
   650.00000000000000     
   649.87251406266603     
   649.92275933537258     
   649.94251842912456     
   650.00796413249736     
   649.97141178800177     
   649.93413467442531     
   649.86380910399669     
   649.94341988013502     
   649.94304902082081     
   649.86341621658357     
   649.95900811014531     
   649.98482970314228     
   650.02583755719490     
   650.10747962593780     
   649.93587213953958     
   649.93251221115452     
   649.91040627801874     
   649.90023092223339     
   649.90124485969488     
   649.88600070984023     
   650.04705898443183     
   649.89257353964274     
   649.96934152232370     
   649.90797409954359     
   650.15047795338205     
   649.92191294257736     
   649.88464900628844     
   649.90012052588440     
   649.92088133190157     
   649.87010337730749     
   649.86822005786632     
   649.87123441022663     
   649.87914057550734     
   649.89223099825995     
   649.92532448677196     
   650.03673625082195     
   649.93339871691444     
   649.91056081249644     
   650.02120982598649     
   649.99905107224276     
   649.93884133473352     
   649.97294545385614     
   649.94591981829683     
   649.87717955122332     
   649.88933092178911     
   649.90517762300453     
   649.87412412048513     
   649.86734769476413     
   649.86300365812019     
   649.86044674606660     
   649.86023518710829     
   649.91452487351432     
   649.91392521128364     
   649.92026915240160     
   649.91863643836939     
   649.93577218798885     
   649.93243085570691     
   649.89431259539401     
   650.01986256456405     
   650.00887413278133     
   649.98862438460753     
   649.97088398852532     
   649.96764057380619     
   649.91738808725484     
   649.93285978969311     
   650.03585690220996     
   650.01337202164996     
   649.99567127602859     
   649.98465900515419     
   649.98011405134548     
   649.99084113904610     
   649.96728040295011     
   649.94676481712690     
   649.93220716296719     
   649.92603512725225     
   649.90370461571831     
   649.93243057750408     
   649.94108986841286     
   649.94803800973443     
   649.95705201181227     
   649.94985799096798     
   649.94942063439203     
   649.94463995317233     
   649.95012263269018     
   649.95918178984505     
   649.92090122784077     
   649.90258384962578     
   649.97477567887563     
   649.89313400334265     
   649.99327128096070     
   649.89202017075752     
   650.01019722882290     
   649.89815787098280     
   650.02125609404811     
   649.90685609734339     
   650.02310609372034     
   649.91281425070486     
   650.01413295160171     
   649.91308508716747     
   649.99506838325908     
   650.08391377791975     
   649.90063704362615     
   649.94276204423386     
   649.92206546936575     
   649.91240891024188     
   649.91452107580074     
   650.12073493447542     
   649.92364541334689     
   650.03036174556007     
   650.05687497803183     
   650.07189132023223     
   649.66993750068684     
   650.08751121643127     
   650.08876883847233     
   650.06536365923557     
   650.08861099225498     
   650.11875257328575     
   650.11499352355236     
   650.10216277455902     
   649.89985565783275     
   649.98018829907346     
   649.91110345068682     
   650.06012227966539     
   650.08308338856818     
   649.98794125480788     
   649.98751596584111     
   649.99034067428545     
   649.99854265693546     
   650.11049643484921     
   650.01186049207831     
   650.05495433526016     
   650.02846837112907     
   650.01656852579504     
   650.04658820337204     
   649.98417094465901     
   650.08431502325186     
   650.10180384900957     
   650.11411625058861     
   650.11609707608818     
   650.10353010105325     
   650.07638612226776     
   650.04146174055859     
   650.01113131986881     
   649.99754534275689     
   650.00586597041081     
   650.09267944187673     
   650.12794068401251     
   650.06627151858856     
   649.99178538871649     
   650.09138043963662     
   650.09908541455866     
   649.97490731629739     
   650.07474987674732     
   650.04936810027914     
   650.01018987614566     
   649.89419245951217     
   649.90838079082266     
   649.87691884803303     
   649.96085215605387     
   649.93918608911144     
   649.92150218073459     
   649.91013742492134     
   650.31250947059357     
   649.89804098254569     
   649.90037812344804     
   649.90641366137822     
   649.91096166971647     
   649.88045397109340     
   649.93351309956734     
   649.86393285231259     
   649.96828247050883     
   649.85414601954699     
   649.84643382482636     
   650.09474519000878     
   649.83741363886634     
   650.07993143937517     
   649.82740887114971     
   650.06824960391157     
   649.82105239304997     
   650.05323933104091     
   649.82540504263068     
   650.05125129398664     
   649.84669731021836     
   650.07047188824606     
   649.88725016349520     
   650.10488130996521     
   649.94306013938376     
   650.00297254061832     
   650.05166158381951     
   650.07726452035422     
   650.07929349948404     
   650.07109344197568     
   650.10370689999581     
   650.08569226718180     
   649.92153065196646     
   649.95643605424584     
   649.79274926007497     
   649.80034507495191     
   650.30654518047641     
   650.31613500896663     
   649.86695078842104     
   649.85070762124997     
   649.85684103914252     
   649.89863578637210     
   649.89035402531272     
   649.86097488244161     
   650.14839053313221     
   649.82744671002035     
   649.99296300838353     
   650.02978729515064     
   649.81639602215739     
   650.04646391015899     
   649.87465848695274     
   650.04173385877368     
   650.03732816460308     
   650.01693298970997     
   650.09144243905132     
   650.10786186580481     
   649.86841093607325     
   649.83314256838298     
   650.10341057939684     
   649.83401842026865     
   649.87980281090097     
   649.96045378763142     
   650.10602918746156     
   650.11615268386197     
   650.10917548446082     
   650.04967293333982     
   649.92862339073849     
   649.92264827842473     
   649.97363828395737     
   650.02521293273537     
   650.25532049967683     
   650.00364363983408     
   650.10048358815459     
   650.18977480808110     
   650.29433384326808     
   650.05625040999928     
   650.16342464895138     
   650.27925144329481     
   650.25303099629139     
   650.22813491461670     
   650.31006137980637     
   650.15190963531313     
   650.33641029800469     
   650.05978060982306     
   650.34400982397301     
   650.34586271452974     
   649.97183439405353     
   650.34849638741878     
   649.98861144412069     
   650.34894785949291     
   650.06897362951963     
   650.33715105654596     
   650.12292515538911     
   650.30108444242467     
   650.12338466404651     
   650.23336847769758     
   650.13833714050008     
   650.03669424362658     
   649.96219682085757     
   649.94578129720833     
   649.91630644615702     
   649.98674932176129     
   649.89282062025313     
   649.93038778963535     
   649.98398162131605     
   650.26337473001013     
   650.27642006413600     
   649.82049877972156     
   649.76243113429257     
   649.72653526521742     
   649.70508074440431     
   649.69708519725918     
   650.25759873656364     
   650.25741648912992     
   650.20752943241416     
   650.22073330377953     
   650.16897226416427     
   650.12492530376892     
   650.10450333790254     
   650.21574688671262     
   650.11357439410915     
   650.17953002840443     
   650.19829103634220     
   650.24766125623046     
   649.95592706228342     
   649.91531127040105     
   650.19707496178444     
   649.90965646613313     
   650.09014101391426     
   649.93735603397454     
   649.99279107511086     
   649.95312318993547     
   650.06816949910581     
   650.02136601007044     
   650.06995398788763     
   650.21719119297882     
   650.23880683172581     
   650.19363196201948     
   649.96996615497983     
   649.90090935552337     
   649.99426836667226     
   649.92115782162773     
   650.17237908526238     
   650.19111901449844     
   650.14151693044971     
   649.82576511003083     
   650.02849110293198     
   649.92409010497636     
   649.75164777399050     
   649.70956210608529     
   649.87691062580870     
   649.79471350663891     
   649.74205057831102     
   649.90733974841521     
   649.72250803147767     
   650.01762631392762     
   649.72860596595081     
   650.12626131114700     
   649.74521068845479     
   649.75974149011768     
   649.77021869082694     
   650.06512803851012     
   649.78622961168776     
   649.82687203888497     
   649.82305365352659     
   650.10372126897198     
   650.17555217713164     
   650.16171923447996     
   649.77596956291450     
   649.99359151711042     
   650.11851335940776     
   649.97062309253977     
   650.05320009636489     
   649.93089924414846     
   649.87854260111339     
   649.98462572563710     
   650.01976595344979     
   650.02539827193789     
   650.00302169945769     
   649.96303835061917     
   650.02954021937012     
   649.89622732593716     
   649.90943823941620     
   650.15716523691435     
   650.06250574464605     
   650.14024322494447     
   650.13317617968255     
   650.09674094143361     
   650.03541097696746     
   649.96790373639863     
   649.91292160348917     
   649.89551565667512     
   649.93389051647489     
   650.01626531420209     
   650.07379908584346     
   649.84963571106880     
   649.77452513332082     
   649.95088614715974     
   649.84513419959785     
   649.77365928517588     
   650.02212385669293     
   649.90567656406824     
   649.68052592040601     
   650.04171327123288     
   649.84122304917685     
   650.03393078580268     
   649.98514902166028     