# vtk DataFile Version 3.1
Mesh with Data
ASCII
DATASET UNSTRUCTURED_GRID
POINTS         7552 float
      0.200000E+03      0.000000E+00      0.200000E+03
      0.000000E+00      0.000000E+00      0.200000E+03
      0.197500E+03      0.000000E+00      0.200000E+03
      0.195000E+03      0.000000E+00      0.200000E+03
      0.192500E+03      0.000000E+00      0.200000E+03
      0.190000E+03      0.000000E+00      0.200000E+03
      0.187500E+03      0.000000E+00      0.200000E+03
      0.185000E+03      0.000000E+00      0.200000E+03
      0.182500E+03      0.000000E+00      0.200000E+03
      0.180000E+03      0.000000E+00      0.200000E+03
      0.177500E+03      0.000000E+00      0.200000E+03
      0.175000E+03      0.000000E+00      0.200000E+03
      0.172500E+03      0.000000E+00      0.200000E+03
      0.170000E+03      0.000000E+00      0.200000E+03
      0.167500E+03      0.000000E+00      0.200000E+03
      0.165000E+03      0.000000E+00      0.200000E+03
      0.162500E+03      0.000000E+00      0.200000E+03
      0.160000E+03      0.000000E+00      0.200000E+03
      0.157500E+03      0.000000E+00      0.200000E+03
      0.155000E+03      0.000000E+00      0.200000E+03
      0.152500E+03      0.000000E+00      0.200000E+03
      0.150000E+03      0.000000E+00      0.200000E+03
      0.147500E+03      0.000000E+00      0.200000E+03
      0.145000E+03      0.000000E+00      0.200000E+03
      0.142500E+03      0.000000E+00      0.200000E+03
      0.140000E+03      0.000000E+00      0.200000E+03
      0.137500E+03      0.000000E+00      0.200000E+03
      0.135000E+03      0.000000E+00      0.200000E+03
      0.132500E+03      0.000000E+00      0.200000E+03
      0.130000E+03      0.000000E+00      0.200000E+03
      0.127500E+03      0.000000E+00      0.200000E+03
      0.125000E+03      0.000000E+00      0.200000E+03
      0.122500E+03      0.000000E+00      0.200000E+03
      0.120000E+03      0.000000E+00      0.200000E+03
      0.117500E+03      0.000000E+00      0.200000E+03
      0.115000E+03      0.000000E+00      0.200000E+03
      0.112500E+03      0.000000E+00      0.200000E+03
      0.110000E+03      0.000000E+00      0.200000E+03
      0.107500E+03      0.000000E+00      0.200000E+03
      0.105000E+03      0.000000E+00      0.200000E+03
      0.102500E+03      0.000000E+00      0.200000E+03
      0.100000E+03      0.000000E+00      0.200000E+03
      0.975000E+02      0.000000E+00      0.200000E+03
      0.950000E+02      0.000000E+00      0.200000E+03
      0.925000E+02      0.000000E+00      0.200000E+03
      0.900000E+02      0.000000E+00      0.200000E+03
      0.875000E+02      0.000000E+00      0.200000E+03
      0.850000E+02      0.000000E+00      0.200000E+03
      0.825000E+02      0.000000E+00      0.200000E+03
      0.800000E+02      0.000000E+00      0.200000E+03
      0.775000E+02      0.000000E+00      0.200000E+03
      0.750000E+02      0.000000E+00      0.200000E+03
      0.725000E+02      0.000000E+00      0.200000E+03
      0.700000E+02      0.000000E+00      0.200000E+03
      0.675000E+02      0.000000E+00      0.200000E+03
      0.650000E+02      0.000000E+00      0.200000E+03
      0.625000E+02      0.000000E+00      0.200000E+03
      0.600000E+02      0.000000E+00      0.200000E+03
      0.575000E+02      0.000000E+00      0.200000E+03
      0.550000E+02      0.000000E+00      0.200000E+03
      0.525000E+02      0.000000E+00      0.200000E+03
      0.500000E+02      0.000000E+00      0.200000E+03
      0.475000E+02      0.000000E+00      0.200000E+03
      0.450000E+02      0.000000E+00      0.200000E+03
      0.425000E+02      0.000000E+00      0.200000E+03
      0.400000E+02      0.000000E+00      0.200000E+03
      0.375000E+02      0.000000E+00      0.200000E+03
      0.350000E+02      0.000000E+00      0.200000E+03
      0.325000E+02      0.000000E+00      0.200000E+03
      0.300000E+02      0.000000E+00      0.200000E+03
      0.275000E+02      0.000000E+00      0.200000E+03
      0.250000E+02      0.000000E+00      0.200000E+03
      0.225000E+02      0.000000E+00      0.200000E+03
      0.200000E+02      0.000000E+00      0.200000E+03
      0.175000E+02      0.000000E+00      0.200000E+03
      0.150000E+02      0.000000E+00      0.200000E+03
      0.125000E+02      0.000000E+00      0.200000E+03
      0.100000E+02      0.000000E+00      0.200000E+03
      0.750000E+01      0.000000E+00      0.200000E+03
      0.500000E+01      0.000000E+00      0.200000E+03
      0.250000E+01      0.000000E+00      0.200000E+03
      0.000000E+00      0.000000E+00      0.000000E+00
      0.000000E+00      0.000000E+00      0.197500E+03
      0.000000E+00      0.000000E+00      0.195000E+03
      0.000000E+00      0.000000E+00      0.192500E+03
      0.000000E+00      0.000000E+00      0.190000E+03
      0.000000E+00      0.000000E+00      0.187500E+03
      0.000000E+00      0.000000E+00      0.185000E+03
      0.000000E+00      0.000000E+00      0.182500E+03
      0.000000E+00      0.000000E+00      0.180000E+03
      0.000000E+00      0.000000E+00      0.177500E+03
      0.000000E+00      0.000000E+00      0.175000E+03
      0.000000E+00      0.000000E+00      0.172500E+03
      0.000000E+00      0.000000E+00      0.170000E+03
      0.000000E+00      0.000000E+00      0.167500E+03
      0.000000E+00      0.000000E+00      0.165000E+03
      0.000000E+00      0.000000E+00      0.162500E+03
      0.000000E+00      0.000000E+00      0.160000E+03
      0.000000E+00      0.000000E+00      0.157500E+03
      0.000000E+00      0.000000E+00      0.155000E+03
      0.000000E+00      0.000000E+00      0.152500E+03
      0.000000E+00      0.000000E+00      0.150000E+03
      0.000000E+00      0.000000E+00      0.147500E+03
      0.000000E+00      0.000000E+00      0.145000E+03
      0.000000E+00      0.000000E+00      0.142500E+03
      0.000000E+00      0.000000E+00      0.140000E+03
      0.000000E+00      0.000000E+00      0.137500E+03
      0.000000E+00      0.000000E+00      0.135000E+03
      0.000000E+00      0.000000E+00      0.132500E+03
      0.000000E+00      0.000000E+00      0.130000E+03
      0.000000E+00      0.000000E+00      0.127500E+03
      0.000000E+00      0.000000E+00      0.125000E+03
      0.000000E+00      0.000000E+00      0.122500E+03
      0.000000E+00      0.000000E+00      0.120000E+03
      0.000000E+00      0.000000E+00      0.117500E+03
      0.000000E+00      0.000000E+00      0.115000E+03
      0.000000E+00      0.000000E+00      0.112500E+03
      0.000000E+00      0.000000E+00      0.110000E+03
      0.000000E+00      0.000000E+00      0.107500E+03
      0.000000E+00      0.000000E+00      0.105000E+03
      0.000000E+00      0.000000E+00      0.102500E+03
      0.000000E+00      0.000000E+00      0.100000E+03
      0.000000E+00      0.000000E+00      0.975000E+02
      0.000000E+00      0.000000E+00      0.950000E+02
      0.000000E+00      0.000000E+00      0.925000E+02
      0.000000E+00      0.000000E+00      0.900000E+02
      0.000000E+00      0.000000E+00      0.875000E+02
      0.000000E+00      0.000000E+00      0.850000E+02
      0.000000E+00      0.000000E+00      0.825000E+02
      0.000000E+00      0.000000E+00      0.800000E+02
      0.000000E+00      0.000000E+00      0.775000E+02
      0.000000E+00      0.000000E+00      0.750000E+02
      0.000000E+00      0.000000E+00      0.725000E+02
      0.000000E+00      0.000000E+00      0.700000E+02
      0.000000E+00      0.000000E+00      0.675000E+02
      0.000000E+00      0.000000E+00      0.650000E+02
      0.000000E+00      0.000000E+00      0.625000E+02
      0.000000E+00      0.000000E+00      0.600000E+02
      0.000000E+00      0.000000E+00      0.575000E+02
      0.000000E+00      0.000000E+00      0.550000E+02
      0.000000E+00      0.000000E+00      0.525000E+02
      0.000000E+00      0.000000E+00      0.500000E+02
      0.000000E+00      0.000000E+00      0.475000E+02
      0.000000E+00      0.000000E+00      0.450000E+02
      0.000000E+00      0.000000E+00      0.425000E+02
      0.000000E+00      0.000000E+00      0.400000E+02
      0.000000E+00      0.000000E+00      0.375000E+02
      0.000000E+00      0.000000E+00      0.350000E+02
      0.000000E+00      0.000000E+00      0.325000E+02
      0.000000E+00      0.000000E+00      0.300000E+02
      0.000000E+00      0.000000E+00      0.275000E+02
      0.000000E+00      0.000000E+00      0.250000E+02
      0.000000E+00      0.000000E+00      0.225000E+02
      0.000000E+00      0.000000E+00      0.200000E+02
      0.000000E+00      0.000000E+00      0.175000E+02
      0.000000E+00      0.000000E+00      0.150000E+02
      0.000000E+00      0.000000E+00      0.125000E+02
      0.000000E+00      0.000000E+00      0.100000E+02
      0.000000E+00      0.000000E+00      0.750000E+01
      0.000000E+00      0.000000E+00      0.500000E+01
      0.000000E+00      0.000000E+00      0.250000E+01
      0.200000E+03      0.000000E+00      0.000000E+00
      0.250000E+01      0.000000E+00      0.000000E+00
      0.500000E+01      0.000000E+00      0.000000E+00
      0.750000E+01      0.000000E+00      0.000000E+00
      0.100000E+02      0.000000E+00      0.000000E+00
      0.125000E+02      0.000000E+00      0.000000E+00
      0.150000E+02      0.000000E+00      0.000000E+00
      0.175000E+02      0.000000E+00      0.000000E+00
      0.200000E+02      0.000000E+00      0.000000E+00
      0.225000E+02      0.000000E+00      0.000000E+00
      0.250000E+02      0.000000E+00      0.000000E+00
      0.275000E+02      0.000000E+00      0.000000E+00
      0.300000E+02      0.000000E+00      0.000000E+00
      0.325000E+02      0.000000E+00      0.000000E+00
      0.350000E+02      0.000000E+00      0.000000E+00
      0.375000E+02      0.000000E+00      0.000000E+00
      0.400000E+02      0.000000E+00      0.000000E+00
      0.425000E+02      0.000000E+00      0.000000E+00
      0.450000E+02      0.000000E+00      0.000000E+00
[...]
CELL_DATA        14782
SCALARS model_vs float
LOOKUP_TABLE default
   650.02728030206515     
   649.90482418043337     
   649.69418561739735     
   650.29142540966973     
   649.50790825586830     
   649.95187270575639     
   650.20802482587987     
   650.51432155860800     
   650.49319049668577     
   650.42580698766960     
   649.96105225763017     
   650.08316919819015     
   650.17178991791002     
   650.06486801544793     
   649.96398951026458     
   650.01522723269966     
   649.88857465768069     
   649.83966427060420     
   649.82873144866164     
   649.98676631422188     
   649.92858253483735     
   649.61972891832022     
   650.09855986464356     
   649.82775398929834     
   649.85450285551428     
   650.15886936563334     
   650.31351766331113     
   649.68473113667494     
   649.67923944433949     
   649.79344223986971     
   649.95709226059500     
   650.10467275420615     
   650.27237207475923     
   650.31372340014912     
   649.79347356899018     
   650.33816697457974     
   649.76654564430692     
   649.71718802355792     
   649.73131011540727     
   649.37461900645269     
   649.41761300578798     
   649.14568040913900     
   648.99582345977603     
   649.02039068533657     
   649.86865118714309     
   649.73786227299070     
   649.56417917743659     
   649.45401186766196     
   649.44066650288835     
   650.26974678109514     
   649.54945535799652     
   649.90777470935518     
   649.40880580373118     
   649.86141449200863     
   649.42456426298827     
   649.77264837150176     
   649.58094026520462     
   649.69849130958141     
   649.78343531581697     
   649.68738033564375     
   649.92537346100357     
   649.94421763190530     
   649.53711549408274     
   649.99786084747859     
   649.65881969330667     
   649.91415004217663     
   649.47249726470022     
   649.80015704519462     
   649.35560335524235     
   649.36321446506838     
   650.64615577961820     
   650.75361273922033     
   649.83862562880302     
   649.83346556661729     
   650.10643130970868     
   650.03881069534270     
   649.57654143963362     
   650.46083141165320     
   649.84660540655477     
   650.13032044248826     
   650.56038179779921     
   649.84387869269221     
   650.64848968842080     
   650.09662536960684     
   650.28604564641057     
   650.04180453556046     
   650.18538124388135     
   649.51169089447933     
   649.21040077968030     
   650.47709115613577     
   650.32207327765536     
   650.03619640259217     
   650.12165337645365     
   649.71077336610608     
   649.92789080064779     
   649.14264377315669     
   649.04324177763772     
   649.99842540471514     
   650.23353559600105     
   649.09500477487472     
   649.28133921712811     
   649.54751952047673     
   649.81642315890258     
   650.18085361202168     
   650.34663229027524     
   651.51101022305454     
   650.56635372995493     
   650.50111391514793     
   649.80120902545457     
   650.25264885776994     
   650.19044083590370     
   650.04574957390673     
   650.62914127753197     
   650.48589736949066     
   650.00042357642019     
   650.61809022865395     
   649.68676470905586     
   650.55443229120363     
   649.63716930030409     
   650.40879433960049     
   649.60692155206641     
   650.20392576421818     
   649.56735247619395     
   650.00912004469080     
   649.90052834501012     
   649.73748468170402     
   649.90408192611051     
   650.00612443421062     
   649.97233261975794     
   650.30892216314214     
   650.59524908487560     
   649.95864770926357     
   649.79727497015722     
   651.33673572262467     
   649.62014767318237     
   649.57279571447270     
   649.74939823668649     
   650.09947431655996     
   650.46762899110422     
   649.41041947882866     
   650.59247632515803     
   650.09447159268893     
   650.35071544808193     
   650.58411139695045     
   650.64362061714610     
   649.62013112986824     
   650.17751390485637     
   649.91042257585798     
   649.54318311839916     
   649.89298420998671     
   649.54616579280741     
   649.76856959991198     
   649.75901595668142     
   649.82893635202436     
   649.11898473465351     
   650.44492623164365     
   649.71755728357084     
   650.58341662627788     
   649.61316374598391     
   650.19140143746142     
   649.75923286896227     
   649.77485061655227     
   650.03418826027769     
   649.47877938487807     
   650.34004817279640     
   651.53204177362579     
   649.86949218486461     
   650.32732176592560     
   650.62808625017090     
   650.47934132849161     
   650.14244650879891     
   649.75100199427993     
   649.52530737321945     
   649.63016465445423     
   650.00637218527243     
   650.37043116333336     
   649.80117483537185     
   650.98130295523981     
   650.73650012743235     
   649.78856714904703     
   650.15162959269958     
   650.01986301932754     
   649.74035967555722     
   650.15734949498653     
   649.60561270380367     
   649.89204948438601     
   649.65974506777627     
   649.69061561512228     
   650.32816280265206     
   649.72412120423803     
   650.52511962598169     
   649.83301580948353     
   649.82848782620204     
   649.84501462356161     
   649.99484577887870     
   650.00310613019712     
   650.09560485173643     
   650.33571805652036     
   650.76812738462172     
   651.09554724301393     
   651.11584651108024     
   650.78334594410944     
   650.30264892524588     
   649.99452319541092     
   651.85284219559048     
   649.88545692317075     
   649.78148881369214     
   650.08860176865210     
   649.94069277715619     
   650.08094664861505     
   650.12597359796598     
   650.12421734776001     
   650.18028021350051     
   650.08168225926454     
   650.30970658048182     
   649.24031749098140     
   649.90376158234415     
   650.32145597553085     
   650.50927205345727     
   650.34267926567759     
   651.08116326007610     
   650.30314700540998     
   651.61985020108523     
   650.22315380420093     
   651.84806366623286     
   650.22173247066883     
   650.37311604186777     
   649.91296751752100     
   651.77881578636152     
   651.61115179171668     
   651.58675788102846     
   648.90244344131156     
   651.08210151616527     
   650.23534684613810     
   650.29380725338081     
   651.56755259620581     
   651.42383240832294     
   649.10910287686272     
   650.22454653018599     
   649.45181135726580     
   650.49356673921386     
   650.96360327998059     
   649.73114422323022     
   651.40488546537938     
   651.28221182181642     
   649.81997812625434     
   650.75246230189271     
   650.72435631093595     
   650.08138829189818     
   651.42336002606680     
   651.80186043295521     
   651.57205334954710     
   650.80573593355462     
   649.26779755606651     
   649.17712490449890     
   650.53546884775369     
   650.94191305905667     
   651.06099377515250     
   650.99580322444820     
   649.76566849756966     
   650.06065393120684     
   650.70956093582970     
   650.70235184995045     
   649.43301017359386     
   649.35199012415933     
   650.08782003725992     
   650.95133035890422     
   649.00680021589881     
   649.05746462123989     
   649.22666303579297     
   649.39090190483216     
   648.57064007567988     
   648.49162319380741     
   649.92902833344647     
   649.05862988172169     
   649.85872954469141     
   649.66361717926429     
   649.39667461330771     
   649.08377755838319     
   649.14361761745033     
   649.98080757822106     
   647.90848336519639     
   648.28357970415220     
   648.89127260127179     
   647.71048178113949     
   650.07461238645487     
   650.45568862861887     
   650.15894557175341     
   648.79691366094653     
   648.12415490853778     
   649.70659265164090     
   647.97609279883568     
   649.65981832234638     
   649.98617437080657     
   649.20850042417896     
   650.73060154152859     
   647.36551794037109     
   647.10841459050073     
   647.85446536133281     
   649.37447479935940     
   651.82439375359195     
   651.87732549555733     
   650.77952093244039     
   650.51918512277155     
   648.64001522673630     
   647.42453101540627     
   649.67052880388133     
   651.68732257691852     
   649.19685780777081     
   650.83297992828011     
   648.04213343644699     
   647.28750755922454     
   650.57491988600532     
   650.90638939762448     
   650.45545711079967     
   652.07649506581208     
   649.49120961869312     
   652.46639043545520     
   648.43674465406048     
   647.71841115778511     
   647.77967333557046     
   648.85494276089912     
   651.79588752408051     
   648.46130237689817     
   649.32701457662245     
   650.15835030177539     
   651.32372330661997     
   650.14473762837531     
   651.50612634257391     
   651.91464582976448     
   648.49036152419376     
   651.62875402074758     
   648.06868779578008     
   651.14943043270659     
   649.38505405177023     
   649.96381193055402     
   650.43712340378772     
   649.83416412258237     
   648.89562664957703     
   648.05465582985448     
   648.40675658150565     
   648.85748338977339     
   647.75357944872883     
   649.86573741720042     
   646.61296428411561     
   646.75641391466411     
   650.10415768350924     
   647.46842971222645     
   646.23863411625655     
   646.47041936900075     
   647.98238928242017     
   650.09128433223918     
   653.04729159368401     
   647.41615268181033     
   652.76107303873846     
   650.64801775971841     
   649.47757443131241     
   649.10166134748727     
   653.85439819128749     
   653.03257343496864     
   654.00465421151489     
   652.74326730110522     
   654.01873675332831     
   650.22967517142411     
   649.94026166479011     
   650.00673770213666     
   649.99999974370849     
   649.99999963294465     
   650.00000000000000     
   649.62317586403276     
   649.93955893763837     
   649.94691313090789     
   650.11782486105676     
   650.00940751883957     
   649.95515895563437     
   649.59971868776665     
   649.91233677836408     
   649.82318409864058     
   649.54037064843476     
   649.99538173003771     
   650.06569779699942     
   650.14466456434309     
   650.46541341675652     
   649.85785649188529     
   649.83119213397038     
   649.89307977932037     
   649.87885655034802     
   649.72974055369446     
   649.66864475508817     
   650.03804465903841     
   649.80122637911404     
   649.85747867833766     
   649.84766786813884     
   650.30376106018844     
   649.79499797695598     
   649.73713452382788     
   649.79947149501982     
   649.87485696310739     
   649.65383889700956     
   649.66255800744648     
   649.68605514590706     
   649.72360991636162     
   649.77564057996995     
   649.81950950353860     
   650.14445182265035     
   649.91724911086658     
   649.84147771393043     
   650.13752101806790     
   650.09752731019501     
   649.74156500970753     
   650.03443986186846     
   649.95661380327147     
   649.66223912755345     
   649.68990399722975     
   649.73592266825062     
   649.68940246809905     
   649.65401240485153     
   649.62737962872848     
   649.60756527632077     
   649.59653675568291     
   649.91092544484843     
   649.79464612822312     
   649.84999770940613     
   649.88459064928077     
   649.86175253587999     
   649.87202000491129     
   649.85368933003156     
   649.98138626833713     
   649.93932419923260     
   649.88908524754174     
   649.85910708046299     
   649.87245801762697     
   649.71515598870383     
   649.75392090027731     
   649.95928632875155     
   649.90691935568543     
   649.88356705137619     
   649.89303102306712     
   649.92824956408492     
   650.07357875402033     
   650.00817833290239     
   649.93621755871573     
   649.86971846067865     
   649.79152216418652     
   649.65653619596242     
   649.78484740580564     
   649.79186344498692     
   649.80105825321016     
   649.94728598482413     
   649.80115957039982     
   649.89208536911383     
   649.78524248723579     
   649.85565078407296     
   649.84542898829977     
   650.01928400998054     
   649.68131396414583     
   649.86169193967828     
   649.66571489242460     
   649.89652592092909     
   649.67723401124886     
   649.93640114084417     
   649.71365633250423     
   649.96676018351968     
   649.76254704332655     
   649.97606971600601     
   649.80832523457570     
   649.95874597139425     
   649.83870483902353     
   649.91635255603160     
   650.26061991087465     
   649.83591272330466     
   649.79662055808012     
   649.75092016350027     
   649.73443377185515     
   649.75059925589198     
   650.23952982830997     
   649.78879021572334     
   649.95067019960698     
   650.01210645705294     
   650.04541486377173     
   649.85537900021518     
   649.89861179565116     
   650.30818227381212     
   650.07604435282713     
   650.19399005529158     
   650.23702216398431     
   650.21208996571022     
   650.16468584418499     
   649.68028514667549     
   649.97489672004053     
   649.83205713453367     
   650.02875151462956     
   650.10105358542751     
   649.93127736910947     
   649.88132515585687     
   649.85108356554645     
   649.85324079027203     
   650.23288203855896     
   649.88785669422691     
   650.12064929793360     
   649.94452941289865     
   650.02562806871299     
   650.01023628146811     
   649.93367852619485     
   650.13884358477901     
   650.19684802154268     
   650.24379852397260     
   650.26727407900592     
   650.25300833381959     
   650.19409469108859     
   650.10087973595364     
   650.00193617910702     
   649.93213158333981     
   649.91546082834782     
   650.04976644328599     
   650.11345413691072     
   650.15373938006610     
   649.97591399288706     
   650.11001555245957     
   650.15766181658284     
   649.98467164075623     
   650.18711850667421     
   650.11251572126048     
   650.00085129829836     
   649.64753185255017     
   649.83992536189839     
   649.65331856394812     
   649.79649293551415     
   649.70839740962185     
   649.65469555033496     
   649.64151266869214     
   650.83121808824080     
   649.69978401521246     
   649.71613985943475     
   649.62945336296116     
   649.74308467368269     
   649.56021587908856     
   649.79746406791219     
   649.54175094378024     
   649.88673691049155     
   649.55737819112755     
   649.57947100011688     
   650.02571246489128     
   649.58559483945862     
   650.19956004852406     
   649.57068868549493     
   650.15064802607060     
   649.54933465500085     
   650.07285909069685     
   649.54750248614789     
   650.01424713568588     
   649.58933422420932     
   650.01082678154444     
   649.68571023922379     
   650.06619550632342     
   649.82746174302179     
   649.98377966905298     
   650.11069250742571     
   650.17063786331585     
   650.15481549054027     
   650.09472519770975     
   650.19862058946023     
   650.13916326861613     
   649.84518950153790     
   649.83210730158896     
   649.47639743479419     
   649.51109383926610     
   650.78322461646223     
   650.81786802352599     
   649.54514847140638     
   649.50440251011048     
   649.55089775690703     
   649.76202485127340     
   649.78830094121099     
   649.69742863779686     
   650.33060912677536     
   649.59501160782872     
   650.00535639344844     
   650.13920883701485     
   649.51748882056472     
   650.19683930820645     
   649.64372764728660     
   650.17894866654490     
   650.02624099517902     
   650.10186956125926     
   650.15973541547828     
   650.19617203902919     
   649.70656121114769     
   649.60398546425802     
   650.11217617499904     
   649.57942214871252     
   649.66024415357219     
   649.83351639534749     
   650.19107414944665     
   650.31289239478633     
   650.34950054667547     
   650.03192573713773     
   649.82741861333784     
   649.86699436048980     
   650.03426291335813     
   650.26236308522834     
   650.68677544325794     
   649.90180689052170     
   650.19422945905023     
   650.47752928598743     
   650.79894527830220     
   650.01544689524997     
   650.33303900265662     
   650.72693013412970     
   650.62167437432629     
   650.62957798517721     
   650.81586361088853     
   650.47251610209094     
   650.89929266466413     
   650.26018958859459     
   650.90139007668438     
   650.87355549286394     
   649.88072053731889     
   650.85725764543804     
   649.93329377756277     
   650.86165777539043     
   650.12290410663570     
   650.86301390031406     
   650.28331590307721     
   650.81996451826114     
   650.32807573151410     
   650.69661537133061     
   650.48623730925453     
   650.22789562606692     
   650.00420547651208     
   649.90701130808259     
   649.89824009395397     
   650.07136768983764     
   649.58469382666590     
   649.93071702582802     
   650.09132811786503     
   650.71655063411606     
   650.70746813503763     
   649.52718125142599     
   649.45839592390439     
   649.41367134899417     
   649.39233971472129     
   649.41815432314309     
   650.72528799642885     
   650.64098431507728     
   650.42533054956459     
   650.67611921193838     
   650.53740002889140     
   650.38086960403712     
   650.27522574666204     
   650.56170769221126     
   650.25878871782288     
   650.58046210646341     
   650.46053538607850     
   650.60376848454598     
   650.04255246612786     
   649.87627738392541     
   650.59413024267224     
   649.80580409149036     
   650.35603857266835     
   649.83610830002544     
   649.94749974214460     
   649.95743370957655     
   650.11344595432968     
   650.12707027491592     
   650.28724940107520     
   650.47387860015658     
   650.56097485287660     
   650.50724921748827     
   650.04953351804852     
   649.87815443506190     
   649.69258523173391     
   649.88940258512855     
   650.24446052631583     
   650.19215777157626     
   650.17191871085140     
   649.94706043708447     
   650.32855719826966     
   650.17266869110642     
   649.70953209933555     
   649.52157068299994     
   650.12291383389277     
   649.93568516648975     
   649.73682657275867     
   649.63953637162172     
   649.58495536794601     
   649.80931640805056     
   649.51523560620899     
   650.01616187177194     
   649.51571791697279     
   649.54353982963789     
   649.55978149852126     
   650.12258659910015     
   649.55461521707480     
   649.71131862887330     
   649.54972741281597     
   649.86902671082544     
   650.05058304670490     
   650.13046874271492     
   650.16520398108685     
   649.86515956562334     
   649.98645821378170     
   649.71996436771053     
   650.47870932339538     
   649.85586877576941     
   649.86642342813241     
   649.93305660696967     
   650.05001723144778     
   650.14490339391216     
   650.17611150805817     
   650.13068669308632     
   649.94319931932000     
   649.87570018605925     
   649.75551827504694     
   650.31738572424695     
   649.79466450256837     
   650.41267653029433     
   649.92604761232451     
   650.43435097895599     
   650.37612863715844     
   650.24347482042810     
   650.06288363850308     
   649.88989343718492     
   649.79432226128961     
   649.81345874958538     
   649.91727495243993     
   649.80518645569111     
   649.86946858326201     
   650.37525032181804     
   650.20963965113435     
   650.01978210514687     
   650.33459291610131     
   650.28121434723403     
   650.00519194744038     
   649.75803877218323     
   649.98386012351796     
   649.50148829087118     
   649.71095658873526     