# vtk DataFile Version 3.1
Mesh with Data
ASCII
DATASET UNSTRUCTURED_GRID
POINTS         7552 float
      0.200000E+03      0.000000E+00      0.200000E+03
      0.000000E+00      0.000000E+00      0.200000E+03
      0.197500E+03      0.000000E+00      0.200000E+03
      0.195000E+03      0.000000E+00      0.200000E+03
      0.192500E+03      0.000000E+00      0.200000E+03
      0.190000E+03      0.000000E+00      0.200000E+03
      0.187500E+03      0.000000E+00      0.200000E+03
      0.185000E+03      0.000000E+00      0.200000E+03
      0.182500E+03      0.000000E+00      0.200000E+03
      0.180000E+03      0.000000E+00      0.200000E+03
      0.177500E+03      0.000000E+00      0.200000E+03
      0.175000E+03      0.000000E+00      0.200000E+03
      0.172500E+03      0.000000E+00      0.200000E+03
      0.170000E+03      0.000000E+00      0.200000E+03
      0.167500E+03      0.000000E+00      0.200000E+03
      0.165000E+03      0.000000E+00      0.200000E+03
      0.162500E+03      0.000000E+00      0.200000E+03
      0.160000E+03      0.000000E+00      0.200000E+03
      0.157500E+03      0.000000E+00      0.200000E+03
      0.155000E+03      0.000000E+00      0.200000E+03
      0.152500E+03      0.000000E+00      0.200000E+03
      0.150000E+03      0.000000E+00      0.200000E+03
      0.147500E+03      0.000000E+00      0.200000E+03
      0.145000E+03      0.000000E+00      0.200000E+03
      0.142500E+03      0.000000E+00      0.200000E+03
      0.140000E+03      0.000000E+00      0.200000E+03
      0.137500E+03      0.000000E+00      0.200000E+03
      0.135000E+03      0.000000E+00      0.200000E+03
      0.132500E+03      0.000000E+00      0.200000E+03
      0.130000E+03      0.000000E+00      0.200000E+03
      0.127500E+03      0.000000E+00      0.200000E+03
      0.125000E+03      0.000000E+00      0.200000E+03
      0.122500E+03      0.000000E+00      0.200000E+03
      0.120000E+03      0.000000E+00      0.200000E+03
      0.117500E+03      0.000000E+00      0.200000E+03
      0.115000E+03      0.000000E+00      0.200000E+03
      0.112500E+03      0.000000E+00      0.200000E+03
      0.110000E+03      0.000000E+00      0.200000E+03
      0.107500E+03      0.000000E+00      0.200000E+03
      0.105000E+03      0.000000E+00      0.200000E+03
      0.102500E+03      0.000000E+00      0.200000E+03
      0.100000E+03      0.000000E+00      0.200000E+03
      0.975000E+02      0.000000E+00      0.200000E+03
      0.950000E+02      0.000000E+00      0.200000E+03
      0.925000E+02      0.000000E+00      0.200000E+03
      0.900000E+02      0.000000E+00      0.200000E+03
      0.875000E+02      0.000000E+00      0.200000E+03
      0.850000E+02      0.000000E+00      0.200000E+03
      0.825000E+02      0.000000E+00      0.200000E+03
      0.800000E+02      0.000000E+00      0.200000E+03
      0.775000E+02      0.000000E+00      0.200000E+03
      0.750000E+02      0.000000E+00      0.200000E+03
      0.725000E+02      0.000000E+00      0.200000E+03
      0.700000E+02      0.000000E+00      0.200000E+03
      0.675000E+02      0.000000E+00      0.200000E+03
      0.650000E+02      0.000000E+00      0.200000E+03
      0.625000E+02      0.000000E+00      0.200000E+03
      0.600000E+02      0.000000E+00      0.200000E+03
      0.575000E+02      0.000000E+00      0.200000E+03
      0.550000E+02      0.000000E+00      0.200000E+03
      0.525000E+02      0.000000E+00      0.200000E+03
      0.500000E+02      0.000000E+00      0.200000E+03
      0.475000E+02      0.000000E+00      0.200000E+03
      0.450000E+02      0.000000E+00      0.200000E+03
      0.425000E+02      0.000000E+00      0.200000E+03
      0.400000E+02      0.000000E+00      0.200000E+03
      0.375000E+02      0.000000E+00      0.200000E+03
      0.350000E+02      0.000000E+00      0.200000E+03
      0.325000E+02      0.000000E+00      0.200000E+03
      0.300000E+02      0.000000E+00      0.200000E+03
      0.275000E+02      0.000000E+00      0.200000E+03
      0.250000E+02      0.000000E+00      0.200000E+03
      0.225000E+02      0.000000E+00      0.200000E+03
      0.200000E+02      0.000000E+00      0.200000E+03
      0.175000E+02      0.000000E+00      0.200000E+03
      0.150000E+02      0.000000E+00      0.200000E+03
      0.125000E+02      0.000000E+00      0.200000E+03
      0.100000E+02      0.000000E+00      0.200000E+03
      0.750000E+01      0.000000E+00      0.200000E+03
      0.500000E+01      0.000000E+00      0.200000E+03
      0.250000E+01      0.000000E+00      0.200000E+03
      0.000000E+00      0.000000E+00      0.000000E+00
      0.000000E+00      0.000000E+00      0.197500E+03
      0.000000E+00      0.000000E+00      0.195000E+03
      0.000000E+00      0.000000E+00      0.192500E+03
      0.000000E+00      0.000000E+00      0.190000E+03
      0.000000E+00      0.000000E+00      0.187500E+03
      0.000000E+00      0.000000E+00      0.185000E+03
      0.000000E+00      0.000000E+00      0.182500E+03
      0.000000E+00      0.000000E+00      0.180000E+03
      0.000000E+00      0.000000E+00      0.177500E+03
      0.000000E+00      0.000000E+00      0.175000E+03
      0.000000E+00      0.000000E+00      0.172500E+03
      0.000000E+00      0.000000E+00      0.170000E+03
      0.000000E+00      0.000000E+00      0.167500E+03
      0.000000E+00      0.000000E+00      0.165000E+03
      0.000000E+00      0.000000E+00      0.162500E+03
      0.000000E+00      0.000000E+00      0.160000E+03
      0.000000E+00      0.000000E+00      0.157500E+03
      0.000000E+00      0.000000E+00      0.155000E+03
      0.000000E+00      0.000000E+00      0.152500E+03
      0.000000E+00      0.000000E+00      0.150000E+03
      0.000000E+00      0.000000E+00      0.147500E+03
      0.000000E+00      0.000000E+00      0.145000E+03
      0.000000E+00      0.000000E+00      0.142500E+03
      0.000000E+00      0.000000E+00      0.140000E+03
      0.000000E+00      0.000000E+00      0.137500E+03
      0.000000E+00      0.000000E+00      0.135000E+03
      0.000000E+00      0.000000E+00      0.132500E+03
      0.000000E+00      0.000000E+00      0.130000E+03
      0.000000E+00      0.000000E+00      0.127500E+03
      0.000000E+00      0.000000E+00      0.125000E+03
      0.000000E+00      0.000000E+00      0.122500E+03
      0.000000E+00      0.000000E+00      0.120000E+03
      0.000000E+00      0.000000E+00      0.117500E+03
      0.000000E+00      0.000000E+00      0.115000E+03
      0.000000E+00      0.000000E+00      0.112500E+03
      0.000000E+00      0.000000E+00      0.110000E+03
      0.000000E+00      0.000000E+00      0.107500E+03
      0.000000E+00      0.000000E+00      0.105000E+03
      0.000000E+00      0.000000E+00      0.102500E+03
      0.000000E+00      0.000000E+00      0.100000E+03
      0.000000E+00      0.000000E+00      0.975000E+02
      0.000000E+00      0.000000E+00      0.950000E+02
      0.000000E+00      0.000000E+00      0.925000E+02
      0.000000E+00      0.000000E+00      0.900000E+02
      0.000000E+00      0.000000E+00      0.875000E+02
      0.000000E+00      0.000000E+00      0.850000E+02
      0.000000E+00      0.000000E+00      0.825000E+02
      0.000000E+00      0.000000E+00      0.800000E+02
      0.000000E+00      0.000000E+00      0.775000E+02
      0.000000E+00      0.000000E+00      0.750000E+02
      0.000000E+00      0.000000E+00      0.725000E+02
      0.000000E+00      0.000000E+00      0.700000E+02
      0.000000E+00      0.000000E+00      0.675000E+02
      0.000000E+00      0.000000E+00      0.650000E+02
      0.000000E+00      0.000000E+00      0.625000E+02
      0.000000E+00      0.000000E+00      0.600000E+02
      0.000000E+00      0.000000E+00      0.575000E+02
      0.000000E+00      0.000000E+00      0.550000E+02
      0.000000E+00      0.000000E+00      0.525000E+02
      0.000000E+00      0.000000E+00      0.500000E+02
      0.000000E+00      0.000000E+00      0.475000E+02
      0.000000E+00      0.000000E+00      0.450000E+02
      0.000000E+00      0.000000E+00      0.425000E+02
      0.000000E+00      0.000000E+00      0.400000E+02
      0.000000E+00      0.000000E+00      0.375000E+02
      0.000000E+00      0.000000E+00      0.350000E+02
      0.000000E+00      0.000000E+00      0.325000E+02
      0.000000E+00      0.000000E+00      0.300000E+02
      0.000000E+00      0.000000E+00      0.275000E+02
      0.000000E+00      0.000000E+00      0.250000E+02
      0.000000E+00      0.000000E+00      0.225000E+02
      0.000000E+00      0.000000E+00      0.200000E+02
      0.000000E+00      0.000000E+00      0.175000E+02
      0.000000E+00      0.000000E+00      0.150000E+02
      0.000000E+00      0.000000E+00      0.125000E+02
      0.000000E+00      0.000000E+00      0.100000E+02
      0.000000E+00      0.000000E+00      0.750000E+01
      0.000000E+00      0.000000E+00      0.500000E+01
      0.000000E+00      0.000000E+00      0.250000E+01
      0.200000E+03      0.000000E+00      0.000000E+00
      0.250000E+01      0.000000E+00      0.000000E+00
      0.500000E+01      0.000000E+00      0.000000E+00
      0.750000E+01      0.000000E+00      0.000000E+00
      0.100000E+02      0.000000E+00      0.000000E+00
      0.125000E+02      0.000000E+00      0.000000E+00
      0.150000E+02      0.000000E+00      0.000000E+00
      0.175000E+02      0.000000E+00      0.000000E+00
      0.200000E+02      0.000000E+00      0.000000E+00
      0.225000E+02      0.000000E+00      0.000000E+00
      0.250000E+02      0.000000E+00      0.000000E+00
      0.275000E+02      0.000000E+00      0.000000E+00
      0.300000E+02      0.000000E+00      0.000000E+00
      0.325000E+02      0.000000E+00      0.000000E+00
      0.350000E+02      0.000000E+00      0.000000E+00
      0.375000E+02      0.000000E+00      0.000000E+00
      0.400000E+02      0.000000E+00      0.000000E+00
      0.425000E+02      0.000000E+00      0.000000E+00
      0.450000E+02      0.000000E+00      0.000000E+00
[...]
CELL_DATA        14782
SCALARS cvs float
LOOKUP_TABLE default
 -0.16621745991537989     
   5.4064640251769797E-002
   5.6124160765116254E-002
   3.0302147809901349E-002
  0.11638829559600672     
  -4.1942443761289680E-002
  -3.2835733210978470E-002
   6.2332023087232374E-002
   2.8576369378203011E-002
  -1.6960309977921802E-002
   5.6906203979647935E-002
  0.11895353591240104     
  0.10371324789285108     
   3.7210051482370526E-002
  -4.6800368894798744E-002
   7.1455427994280465E-002
 -0.14022898076599133     
   8.5814350450663768E-002
 -0.11995969068579468     
 -0.19096700908012490     
 -0.10317022061262937     
  -7.1448835582741926E-002
  -1.1140617452528517E-002
 -0.17931377319808076     
 -0.21001773268603063     
 -0.13849190285053872     
  -7.4964315604135801E-002
 -0.19377215154858576     
 -0.22220305256467016     
 -0.19995246166104463     
 -0.14471792591557969     
  -8.2355282416936709E-002
  -4.1555571695341426E-003
   7.3064175070618352E-003
  -4.3859215316818995E-002
   1.2937191160993384E-002
   4.5312443577172623E-002
  -2.5466419350285877E-002
   8.6241053050812103E-002
  -1.4899931889648506E-002
 -0.22104206989822411     
 -0.20921286727582680     
 -0.17803389037569550     
 -0.12449218031048334     
  -1.2178150464995825E-002
  -8.1610905819929386E-002
 -0.14918541676461455     
 -0.16877780300236223     
 -0.18395997674660142     
  0.10002960269904060     
  -6.3934898082298741E-003
   3.1114355735641620E-002
 -0.13662964647022724     
   3.3437417988968064E-002
 -0.14550376045834268     
  -3.9971081714158876E-003
 -0.10669603504358857     
  -6.5213842337582900E-002
  -3.4419231691148994E-002
 -0.12515805820342746     
   4.0239067461794689E-002
   8.6321410274046870E-002
   8.2104819257996786E-002
  -5.0471652434757180E-003
   3.8136929203507697E-002
   7.2819820511333622E-002
  -4.1960853472681539E-002
  0.10917339873998239     
 -0.13005830780867689     
 -0.19969217772777409     
   4.0265732551202874E-002
  -6.2818285955817121E-003
  0.11146439791046808     
  0.10700125462279682     
   2.4201291912345019E-002
  -8.7754725756312504E-002
   4.3865060875333317E-002
   9.9244169020534609E-002
  0.11347332821647058     
  0.15685920150821947     
   9.7413925792788764E-003
  -4.0795803316001043E-002
   6.0224477669716017E-002
   2.4810030804249740E-002
  0.15159989147249869     
  -2.3079284550333676E-002
   6.5474354820221042E-002
   3.6946465498662581E-002
  -4.9259833547501006E-002
  0.15094391490908732     
  0.16031769709620997     
  0.12317839781896125     
  -4.1199022984940152E-002
 -0.21155010659535378     
 -0.17016298495732377     
  -6.8814386201612246E-002
  -9.9083227147793246E-002
 -0.11379544240776213     
  0.12708325070174187     
 -0.11419885532170346     
 -0.12939200778362414     
 -0.15316154633455600     
 -0.17518431406847126     
  -9.8175335956620341E-002
   2.4765171343851339E-002
  0.33120322648555700     
   1.4006342063939040E-002
  0.10181026805558183     
   5.5036962299663261E-003
  0.10418443206905652     
   3.0094145023753030E-002
   6.2890729677744880E-002
  0.11021787311514869     
  0.12853123073347197     
   5.2813056366315045E-002
   3.3352548055785275E-002
  -1.1955683874326536E-002
   8.1930730845903604E-002
   6.2682349195750248E-003
  0.10551420353147764     
   4.5251304842364268E-002
   8.7431317368362835E-002
   7.8771417511049796E-002
   4.1061991050786950E-002
  -1.0689276452782309E-003
  -2.6140047469837918E-002
  -1.0656344462295783E-002
  -9.5263899677379985E-002
   1.8686828881783302E-002
 -0.11673999265127713     
  -5.4526808198703786E-002
  0.12183924981638308     
  0.14634408759589090     
   8.4842507292202204E-002
  0.13312255676371287     
   8.5413201260138349E-002
   1.9006113842208378E-002
  -4.0348133269106551E-002
  -5.8556467415971036E-002
  -6.6394428676196701E-002
   5.8038489593760519E-002
   9.3777365019569806E-002
   1.6763262584920280E-002
  -4.8928024058800063E-002
  -8.7810287857835720E-002
  -1.2450168589421690E-003
  -2.4005862472945168E-002
  -5.0061194793545476E-002
   1.8997202897573534E-002
   5.6078087095278992E-002
  -6.1667258224653104E-002
   1.2248259085907456E-002
  -3.4739181470339470E-002
   4.2325310233711569E-002
 -0.46405179561802745     
   2.6521821135227906E-002
   4.1777582372105743E-002
   7.4874874777628123E-002
  -5.5273020920214536E-002
  0.10446480551559892     
  -8.1271191717600166E-002
   9.6958335412632962E-002
  -6.5599429560705330E-002
   9.9275434088307718E-002
  -2.4834860237118311E-002
  -2.4157054231345065E-002
  0.12709655227073649     
  0.10545054894307364     
   3.3049615334835580E-002
   3.1190799038748197E-002
   2.3229244678361585E-002
   3.4134931288166234E-002
   8.0978307331440791E-002
  0.14811393122370711     
  0.18498307096836114     
  0.14888735047321172     
  0.38165357226135443     
   5.4106034884959645E-002
 -0.15137615204791460     
  -8.3038465651088370E-002
  -8.4908802556690088E-002
  -8.2683607417955635E-002
 -0.11075221328056994     
   6.4276417537555225E-002
 -0.10407247405218983     
  -9.4976780888987505E-002
   8.5115213043892440E-003
  -3.3491411578820920E-002
  -9.5120540819100541E-002
  -7.3462940111759814E-002
 -0.10025126125093918     
  -7.3961954646826436E-002
  -7.3814636876555956E-002
  -9.1650225390557366E-002
 -0.10657764651506049     
  0.14561756428109829     
  0.12695336958215409     
 -0.12077667146811338     
 -0.10221440873672748     
  -6.1884978407099445E-002
  -1.4712478294966863E-002
   2.2634784403171723E-002
   4.0529688679149953E-002
   3.1676756001430349E-002
  -7.7204754780685309E-002
  0.16387300140424960     
 -0.22334853563369661     
  -3.7618621696392934E-002
   5.1717398322538556E-002
  0.15138714550920834     
   8.3242982022997250E-002
  0.15221140760631785     
   8.4776745201202486E-002
   8.6036503198447592E-002
  0.14332876692309324     
 -0.26624793442720529     
  -1.9858464347407190E-004
  0.14272772321979774     
  -3.8934172463321537E-002
  0.16647460823321328     
  -3.8265207375473842E-003
  0.17759523890696954     
   4.0876018091560884E-002
  0.15060997616188873     
   4.6323523972355715E-002
  0.10017863369250887     
   5.6958398453660866E-002
 -0.26473766326821213     
  -4.7060130003188400E-002
   9.2475368969092711E-002
   2.6814039431234199E-002
  0.10616284276522764     
 -0.12269490979738482     
 -0.29454774013049140     
  0.11505149119170589     
  0.19474619730222179     
  0.15868922784674933     
 -0.39734506404290115     
  0.13531588604881484     
 -0.45721541326285847     
  0.11368180570024078     
  0.12126529354200444     
   1.4535959380866898E-002
  0.24979962972039463     
  0.20329802591198337     
  -1.7795715698412137E-002
  0.17710139527598323     
  -8.3525855793552678E-003
   1.7067421535210958E-002
   8.7235550104125592E-002
  0.19470917373317770     
  0.25426945717122518     
  0.23990001395880547     
   6.3450970279020191E-002
  -1.9729786237568159E-002
   3.8544220262536816E-002
  0.12014604611717059     
  0.38960743909493833     
  0.23508152826189849     
 -0.28446615559681043     
  0.29230775119325902     
  0.27342283144125479     
  -9.8975525777189335E-002
 -0.45381317409299160     
 -0.40976088822500556     
 -0.32393447915464146     
  0.12799354297160498     
 -0.58035381538204756     
 -0.60483908430097688     
  0.20170892373922755     
 -0.50219892362371521     
   9.0615145229841043E-002
   7.0823879073946189E-002
  -3.0338275794511267E-002
  0.18031123542426367     
  0.17866446555555543     
  0.28230940772600965     
  0.26011764133664839     
  0.16333372163040602     
  0.18414868192564909     
  -1.2530207543596215E-002
  -4.5043951631392135E-003
  0.14922366944701249     
  0.16671645843153537     
  0.12391917694511718     
  0.29846923512415374     
  0.48880886995740497     
  0.54960716610339244     
  -9.6267182728628345E-002
   3.7934816187291213E-002
 -0.18225050855476513     
  0.16535105338342046     
  -5.1369591057385769E-002
  0.14965687358579305     
   8.8116768026658937E-002
  0.15724522425574719     
  0.12975231600661563     
   8.1750879106911395E-002
   5.4972347721611477E-002
   7.1789215267064041E-002
  0.17756836536651160     
  0.24610690137064206     
 -0.68529669016123418     
   3.6010879309413268E-003
 -0.18736012939085139     
 -0.27082142892051303     
  0.28862524357213265     
  0.54977945588004584     
  0.40304838439109303     
 -0.21818185518628408     
  0.12011886870973101     
 -0.15130976533321450     
  0.52290583625089349     
  0.64969557478858597     
  0.52842986466938002     
  0.12671482028156472     
  0.19816881949607618     
   8.9735271966043084E-002
 -0.18356951462234833     
 -0.43398473488578537     
 -0.43149532457058981     
 -0.20773283562478290     
   9.4020270561122068E-002
  -5.7579379935631753E-002
 -0.86471351265018948     
  0.25979529393558265     
  0.53819884579773747     
 -0.64856752157757636     
  0.43124088960336182     
  0.51669856761870225     
 -0.77511162137647971     
  0.25701368267383806     
 -0.43286655190058010     
 -0.21248867233054458     
   7.5721919823033779E-002
 -0.13468147347504525     
 -0.98428888648314716     
  -1.0014298709667036     
 -0.73673727484422802     
 -0.32527520591795794     
   9.4021275070939013E-003
 -0.27943411058229983     
 -0.19010448719352097     
 -0.47037225104313718     
  -2.4865698435825090E-002
 -0.11183073853165010     
 -0.37929328267923679     
 -0.16304289233154895     
  -9.4845910557029289E-003
 -0.10863352806154419     
   5.7904209344074170E-002
 -0.21378732908849099     
 -0.20206780867473392     
  0.17779093827150144     
 -0.15037769045431071     
  -8.1933778220224185E-002
  0.25572460777023664     
  0.26939461810493381     
  0.22689687053460172     
 -0.23711875815189232     
  0.66770939366024884     
 -0.25611160959232415     
  0.27035363134068996     
  -4.3008588928701651E-002
 -0.11219571646945217     
  -3.8661896476855917E-003
  -6.5191086980680888E-008
  -9.0197369620025641E-008
  -0.0000000000000000     
  -7.8979058633353638E-002
  -2.3175054082491542E-003
  -9.2526359998954290E-003
   5.3207519164441226E-002
   2.2454599867147963E-002
  -3.1832535959596172E-003
  -8.2288942076355426E-002
  -1.9334936942789389E-002
  -5.1465639785161263E-002
 -0.11402750999701078     
   2.7702906840486648E-002
   4.4362679992025970E-002
   5.3157456863684442E-002
  0.16694360164466621     
  -3.1422477743327466E-002
  -4.2818984998644442E-002
  -1.9030891385348456E-002
  -1.6863414239555209E-002
  -6.2257392985154598E-002
  -7.2268304696027949E-002
  -2.1362423829579459E-002
  -2.2685154077250046E-002
  -3.2210792618830184E-002
  -2.9588536290427882E-002
   4.1764747075110006E-002
  -4.3471894141490532E-002
  -5.0324873533332010E-002
  -2.9793696185733756E-002
  -5.8316186529187757E-003
  -6.9357775534810526E-002
  -6.8004073099181161E-002
  -6.2559330102435542E-002
  -5.2216311111748820E-002
  -3.6569626037774458E-002
  -4.0606718619873881E-002
   4.5306567778637410E-002
   6.2107437244953304E-003
  -1.6349234221179433E-002
   5.2840122354066162E-002
   4.9601410567591708E-002
  -7.3812646486482142E-002
   3.7529626363276170E-002
   1.7969574810194993E-002
  -6.7261999482412765E-002
  -6.2041522448066933E-002
  -5.3958867847500550E-002
  -6.5424236443916067E-002
  -7.4909334230130617E-002
  -7.9990840639128910E-002
  -8.2353974651221629E-002
  -8.3113279886908795E-002
  -6.3289367311100252E-003
  -4.9982019040646711E-002
  -3.7203469113789613E-002
  -2.6192088092324955E-002
  -3.2144720162327320E-002
  -2.4161577827119814E-002
  -1.9166094727838114E-002
  -8.4496261983502113E-003
  -1.8715237938212968E-002
  -2.8465373187288510E-002
  -3.3097309868882735E-002
  -2.9241057627873018E-002
  -6.0779846013045494E-002
  -5.4109229684465701E-002
  -4.7986498164770394E-002
  -5.9964711439797883E-002
  -5.9459207425090907E-002
  -4.6790041962634851E-002
  -2.6163163744056132E-002
   4.1705363457115480E-002
   2.6664552100179283E-002
   5.2928199251056750E-003
  -1.8697499687737807E-002
  -5.6309606100676715E-002
  -8.4361009452454117E-002
  -6.3725304797028703E-002
  -6.3525081673896103E-002
  -5.8734748447716430E-002
   1.7172373264356098E-003
  -5.3499631010467161E-002
  -2.1386017119956094E-002
  -5.1424082404674089E-002
  -4.1757103397660540E-002
  -5.4698849399485758E-002
   7.3596109899154910E-002
  -6.8838877070961951E-002
  -5.7649578271085161E-002
  -7.4782832156153778E-002
  -5.1214036042032327E-002
  -7.5590076317550589E-002
  -3.8962373191644820E-002
  -7.0409527234145813E-002
  -2.5989838611674192E-002
  -6.0652045376682687E-002
  -1.7071084797678725E-002
  -4.8839842940975861E-002
  -1.5180826962779587E-002
  -3.7712819547491318E-002
  -2.0826563089069980E-002
   2.6629203738011059E-002
  -2.5992495518085086E-002
  -4.5815497639233434E-002
  -5.7356252792701637E-002
  -6.3083590821793878E-002
  -6.1393897959026909E-002
   1.8423674702217591E-002
  -5.3644053564494490E-002
  -1.5821390800260526E-002
  -5.7948928482965990E-003
   5.6225228948642361E-004
   9.2668223846418818E-002
  -6.8140669099261503E-002
   9.0741054700068380E-002
   5.4630405944793084E-003
   3.3306538393204910E-002
   4.1304523294875939E-002
   3.3625132635977537E-002
   1.8246875801276440E-002
  -6.5323816389690176E-002
  -3.8216390293041710E-003
  -1.5073689069316970E-002
  -2.7140333270528103E-002
  -3.2190282783891196E-003
  -2.9303337078342508E-002
  -5.1964453951357868E-002
  -6.7713320186006995E-002
  -7.1149908955623953E-002
   4.1060606522521241E-002
  -6.1118464772346448E-002
   1.9100820360055379E-002
  -4.1080474564695366E-002
   1.0038231050648419E-003
  -1.7014480492500501E-002
  -1.6730557679806555E-002
   2.3194449246874221E-002
   3.5544215639891213E-002
   4.2913159663279736E-002
   4.5286152479127595E-002
   4.1785925350010189E-002
   3.1633961029937346E-002
   1.5979654942100168E-002
  -1.2542588066994074E-003
  -1.4699601946218239E-002
  -1.9856815902485801E-002
  -2.7791791988506266E-003
   2.6516508817888453E-003
   2.5366156046779831E-002
   1.0072447199895987E-002
   2.1812809903828181E-003
   1.0492306962080929E-002
  -3.1740016860646036E-003
   1.8039528204881448E-002
   3.1243504613861182E-003
  -1.4176622914644933E-002
  -9.3440214783724135E-002
  -6.4957875364519465E-003
  -7.8030800284589918E-002
  -6.6806547954778292E-002
  -9.1180983364176460E-002
 -0.10302267069367686     
  -9.9527199267988614E-002
  0.16174032655974821     
  -4.9946918249161386E-002
  -4.1635685511014278E-002
 -0.10177771735205360     
  -3.8567109660890858E-002
 -0.11614920963589291     
  -3.5636843602853345E-002
 -0.11329953524583908     
  -2.8022839046485518E-002
  -9.7299118465005024E-002
  -7.7511824603083243E-002
 -0.13543597665943494     
  -6.3626698182134039E-002
   2.4763050975565977E-002
  -6.0708020635640736E-002
   2.1026562229705364E-002
  -6.7173328647769287E-002
   1.0193846095395243E-002
  -7.6371856550134398E-002
  -6.8920244539274339E-004
  -8.0311021882864764E-002
  -5.0341770635128451E-003
  -7.3373402922930431E-002
  -2.4131914140236924E-004
  -5.4605845885035843E-002
  -2.8407519505111445E-002
  -2.9451241499423575E-003
   1.3461663022105714E-002
   1.6643284471409933E-002
   9.6048931586840657E-003
   1.4557331804024937E-002
   4.5555697436641188E-003
  -3.6269237152572277E-002
  -6.0938416477436051E-002
 -0.11290537938098888     
  -9.8255033912684656E-002
  0.13029927487980442     
  0.14916190033461901     
 -0.10962895436030592     
 -0.12090498875890233     
 -0.10861280755684910     
  -4.2065210914425832E-002
  -1.7558922473999844E-002
  -4.2521878839649585E-002
   4.9489106116093605E-002
  -7.2392169287737493E-002
  -2.7530567351743878E-003
   3.6227247811936182E-002
 -0.11151862694527978     
   5.4438380602963701E-002
  -9.2838504684566114E-002
   4.9898135778016037E-002
  -2.5336989791882401E-002
   2.7962652761721801E-002
   2.1676857401784124E-003
   1.3655171828719562E-002
  -6.5760632943782010E-002
  -8.6533979917587531E-002
  -1.3236131676221084E-003
  -9.3269444285652842E-002
  -8.2323773502634853E-002
  -5.5373085905467273E-002
   6.5142687656929424E-003
   4.1864420879151279E-002
   4.4360305675275505E-002
  -1.7543218994324886E-002
  -2.0986019075575596E-002
  -9.2323078871403789E-003
   1.7099012266464014E-002
  0.14338449229742406     
  0.12636124708056493     
  -5.6656904929290500E-002
   3.3838786284759205E-003
   7.0889556768888126E-002
  0.15699274424253967     
  -4.0712107538444640E-002
   2.3766132696563559E-002
  0.11195657637404365     
   9.4533053703347567E-002
   9.4453564577707233E-002
  0.15121800363241891     
   7.4011719122784939E-002
  0.18036151680703105     
   4.7562339426782639E-002
  0.18127594168388766     
  0.16474416699009686     
 -0.14627644826617711     
  0.14537453588802290     
  -1.2884880963674525E-002
  0.13305442015738325     
   9.1608627982214877E-003
  0.12912168416608336     
   3.0029586173727828E-002
  0.12763596103235716     
   3.6346053691028335E-002
  0.11991008869006337     
   9.9848589456950590E-002
   6.8238758228052615E-002
   3.4273864024057271E-002
   1.1793846133726957E-002
   2.7272862159987570E-002
   3.8321513462697285E-002
  -2.9657606108444715E-002
   4.0418079079421958E-002
   7.0393801679779058E-002
  0.13070515982539960     
  0.11409599574638705     
  -4.9711070856860523E-002
  -6.0062881260606479E-002
  -6.7573561148921740E-002
  -6.3734244813542118E-002
  -3.8854127967196769E-002
  0.15988704954927918     
  0.11003242335697833     
   4.2910305159710942E-002
  0.17765725971022567     
  0.16111639637747829     
  0.12249125137797563     
   8.1516336121876726E-002
  0.10862733413753400     
   5.4843870345002071E-002
  0.15408354687651199     
   6.3095092706789202E-002
   8.7964539933823707E-002
   9.4803225034832433E-002
   4.1842411983717395E-002
  0.12871524469752660     
   2.9386319501182104E-003
  0.10571855860239129     
  -1.3393265329533516E-002
  -8.3654016277903680E-003
   3.0638211313283703E-002
   1.2203402072925052E-002
   4.0224002588624970E-002
   5.2040993206877335E-002
   7.3189004670212804E-002
   9.7504032286286957E-002
  0.10499299813526231     
   6.1444867466642447E-002
   3.4847931388482481E-002
  -3.7118621471734364E-002
   9.4462657511177432E-003
   2.1315076300937312E-002
   6.9698365376277480E-003
 -0.11477639147240043     
  0.12941372366701337     
  0.14442259269414848     
  0.15590187849875892     
   7.3550041980554537E-002
   1.0215339689619927E-002
  0.15424525881329199     
  0.12954329011637328     
   7.3031433499322729E-002
  -3.9612060543648575E-002
   7.7049532557818901E-003
  -2.7969157515340598E-002
  -4.1600893484728244E-002
  -1.2016389863729063E-002
  -6.2759588997042398E-002
  -5.9439314113304276E-002
  -4.4380630788064285E-002
   2.2050528467353090E-002
  -3.0503632972309798E-002
  -2.2940284920247144E-003
  -2.5457348687163844E-002
  -3.9557231308930650E-002
  -3.2876648891272481E-002
  -2.2061878517811943E-002
   8.2992420246545018E-002
  -8.0530535797965291E-002
  -7.8523977857244895E-002
  -3.0315447557095754E-003
   8.7988769280171214E-002
  -7.5954524353816555E-002
  -1.8934080332646125E-002
  -9.4488184318407137E-002
  -7.5366384422224861E-002
  -3.3065380643528999E-002
   1.4988329567364646E-002
   5.4090780528384841E-002
 -0.11232768816342389     
   6.8132804958086643E-002
   3.9312184426074148E-002
  -6.4800011872959820E-002
  -4.3540115917244472E-002
  -3.6748128519595857E-003
  -6.9248104088692308E-002
   5.3660898374812360E-002
   9.6465192363372657E-002
  0.11697323287953729     
  0.11072151007329559     
   7.8339460801091762E-002
   2.7803448076637642E-002
  -2.6102738917009441E-002
  -9.2513846020799290E-002
   1.9622373362592056E-002
   7.5294281264984012E-002
  0.10754173254546390     
  0.11737176358997753     
  0.10893935677981889     
   2.5481829241546537E-002
   5.0992740307692297E-002
  0.10332963431742460     
 -0.15790078016967171     
  -8.9236844824201147E-002
 -0.22955182527850795     
 -0.20879709603892219     