# vtk DataFile Version 3.1
Mesh with Data
ASCII
DATASET UNSTRUCTURED_GRID
POINTS         7552 float
      0.200000E+03      0.000000E+00      0.200000E+03
      0.000000E+00      0.000000E+00      0.200000E+03
      0.197500E+03      0.000000E+00      0.200000E+03
      0.195000E+03      0.000000E+00      0.200000E+03
      0.192500E+03      0.000000E+00      0.200000E+03
      0.190000E+03      0.000000E+00      0.200000E+03
      0.187500E+03      0.000000E+00      0.200000E+03
      0.185000E+03      0.000000E+00      0.200000E+03
      0.182500E+03      0.000000E+00      0.200000E+03
      0.180000E+03      0.000000E+00      0.200000E+03
      0.177500E+03      0.000000E+00      0.200000E+03
      0.175000E+03      0.000000E+00      0.200000E+03
      0.172500E+03      0.000000E+00      0.200000E+03
      0.170000E+03      0.000000E+00      0.200000E+03
      0.167500E+03      0.000000E+00      0.200000E+03
      0.165000E+03      0.000000E+00      0.200000E+03
      0.162500E+03      0.000000E+00      0.200000E+03
      0.160000E+03      0.000000E+00      0.200000E+03
      0.157500E+03      0.000000E+00      0.200000E+03
      0.155000E+03      0.000000E+00      0.200000E+03
      0.152500E+03      0.000000E+00      0.200000E+03
      0.150000E+03      0.000000E+00      0.200000E+03
      0.147500E+03      0.000000E+00      0.200000E+03
      0.145000E+03      0.000000E+00      0.200000E+03
      0.142500E+03      0.000000E+00      0.200000E+03
      0.140000E+03      0.000000E+00      0.200000E+03
      0.137500E+03      0.000000E+00      0.200000E+03
      0.135000E+03      0.000000E+00      0.200000E+03
      0.132500E+03      0.000000E+00      0.200000E+03
      0.130000E+03      0.000000E+00      0.200000E+03
      0.127500E+03      0.000000E+00      0.200000E+03
      0.125000E+03      0.000000E+00      0.200000E+03
      0.122500E+03      0.000000E+00      0.200000E+03
      0.120000E+03      0.000000E+00      0.200000E+03
      0.117500E+03      0.000000E+00      0.200000E+03
      0.115000E+03      0.000000E+00      0.200000E+03
      0.112500E+03      0.000000E+00      0.200000E+03
      0.110000E+03      0.000000E+00      0.200000E+03
      0.107500E+03      0.000000E+00      0.200000E+03
      0.105000E+03      0.000000E+00      0.200000E+03
      0.102500E+03      0.000000E+00      0.200000E+03
      0.100000E+03      0.000000E+00      0.200000E+03
      0.975000E+02      0.000000E+00      0.200000E+03
      0.950000E+02      0.000000E+00      0.200000E+03
      0.925000E+02      0.000000E+00      0.200000E+03
      0.900000E+02      0.000000E+00      0.200000E+03
      0.875000E+02      0.000000E+00      0.200000E+03
      0.850000E+02      0.000000E+00      0.200000E+03
      0.825000E+02      0.000000E+00      0.200000E+03
      0.800000E+02      0.000000E+00      0.200000E+03
      0.775000E+02      0.000000E+00      0.200000E+03
      0.750000E+02      0.000000E+00      0.200000E+03
      0.725000E+02      0.000000E+00      0.200000E+03
      0.700000E+02      0.000000E+00      0.200000E+03
      0.675000E+02      0.000000E+00      0.200000E+03
      0.650000E+02      0.000000E+00      0.200000E+03
      0.625000E+02      0.000000E+00      0.200000E+03
      0.600000E+02      0.000000E+00      0.200000E+03
      0.575000E+02      0.000000E+00      0.200000E+03
      0.550000E+02      0.000000E+00      0.200000E+03
      0.525000E+02      0.000000E+00      0.200000E+03
      0.500000E+02      0.000000E+00      0.200000E+03
      0.475000E+02      0.000000E+00      0.200000E+03
      0.450000E+02      0.000000E+00      0.200000E+03
      0.425000E+02      0.000000E+00      0.200000E+03
      0.400000E+02      0.000000E+00      0.200000E+03
      0.375000E+02      0.000000E+00      0.200000E+03
      0.350000E+02      0.000000E+00      0.200000E+03
      0.325000E+02      0.000000E+00      0.200000E+03
      0.300000E+02      0.000000E+00      0.200000E+03
      0.275000E+02      0.000000E+00      0.200000E+03
      0.250000E+02      0.000000E+00      0.200000E+03
      0.225000E+02      0.000000E+00      0.200000E+03
      0.200000E+02      0.000000E+00      0.200000E+03
      0.175000E+02      0.000000E+00      0.200000E+03
      0.150000E+02      0.000000E+00      0.200000E+03
      0.125000E+02      0.000000E+00      0.200000E+03
      0.100000E+02      0.000000E+00      0.200000E+03
      0.750000E+01      0.000000E+00      0.200000E+03
      0.500000E+01      0.000000E+00      0.200000E+03
      0.250000E+01      0.000000E+00      0.200000E+03
      0.000000E+00      0.000000E+00      0.000000E+00
      0.000000E+00      0.000000E+00      0.197500E+03
      0.000000E+00      0.000000E+00      0.195000E+03
      0.000000E+00      0.000000E+00      0.192500E+03
      0.000000E+00      0.000000E+00      0.190000E+03
      0.000000E+00      0.000000E+00      0.187500E+03
      0.000000E+00      0.000000E+00      0.185000E+03
      0.000000E+00      0.000000E+00      0.182500E+03
      0.000000E+00      0.000000E+00      0.180000E+03
      0.000000E+00      0.000000E+00      0.177500E+03
      0.000000E+00      0.000000E+00      0.175000E+03
      0.000000E+00      0.000000E+00      0.172500E+03
      0.000000E+00      0.000000E+00      0.170000E+03
      0.000000E+00      0.000000E+00      0.167500E+03
      0.000000E+00      0.000000E+00      0.165000E+03
      0.000000E+00      0.000000E+00      0.162500E+03
      0.000000E+00      0.000000E+00      0.160000E+03
      0.000000E+00      0.000000E+00      0.157500E+03
      0.000000E+00      0.000000E+00      0.155000E+03
      0.000000E+00      0.000000E+00      0.152500E+03
      0.000000E+00      0.000000E+00      0.150000E+03
      0.000000E+00      0.000000E+00      0.147500E+03
      0.000000E+00      0.000000E+00      0.145000E+03
      0.000000E+00      0.000000E+00      0.142500E+03
      0.000000E+00      0.000000E+00      0.140000E+03
      0.000000E+00      0.000000E+00      0.137500E+03
      0.000000E+00      0.000000E+00      0.135000E+03
      0.000000E+00      0.000000E+00      0.132500E+03
      0.000000E+00      0.000000E+00      0.130000E+03
      0.000000E+00      0.000000E+00      0.127500E+03
      0.000000E+00      0.000000E+00      0.125000E+03
      0.000000E+00      0.000000E+00      0.122500E+03
      0.000000E+00      0.000000E+00      0.120000E+03
      0.000000E+00      0.000000E+00      0.117500E+03
      0.000000E+00      0.000000E+00      0.115000E+03
      0.000000E+00      0.000000E+00      0.112500E+03
      0.000000E+00      0.000000E+00      0.110000E+03
      0.000000E+00      0.000000E+00      0.107500E+03
      0.000000E+00      0.000000E+00      0.105000E+03
      0.000000E+00      0.000000E+00      0.102500E+03
      0.000000E+00      0.000000E+00      0.100000E+03
      0.000000E+00      0.000000E+00      0.975000E+02
      0.000000E+00      0.000000E+00      0.950000E+02
      0.000000E+00      0.000000E+00      0.925000E+02
      0.000000E+00      0.000000E+00      0.900000E+02
      0.000000E+00      0.000000E+00      0.875000E+02
      0.000000E+00      0.000000E+00      0.850000E+02
      0.000000E+00      0.000000E+00      0.825000E+02
      0.000000E+00      0.000000E+00      0.800000E+02
      0.000000E+00      0.000000E+00      0.775000E+02
      0.000000E+00      0.000000E+00      0.750000E+02
      0.000000E+00      0.000000E+00      0.725000E+02
      0.000000E+00      0.000000E+00      0.700000E+02
      0.000000E+00      0.000000E+00      0.675000E+02
      0.000000E+00      0.000000E+00      0.650000E+02
      0.000000E+00      0.000000E+00      0.625000E+02
      0.000000E+00      0.000000E+00      0.600000E+02
      0.000000E+00      0.000000E+00      0.575000E+02
      0.000000E+00      0.000000E+00      0.550000E+02
      0.000000E+00      0.000000E+00      0.525000E+02
      0.000000E+00      0.000000E+00      0.500000E+02
      0.000000E+00      0.000000E+00      0.475000E+02
      0.000000E+00      0.000000E+00      0.450000E+02
      0.000000E+00      0.000000E+00      0.425000E+02
      0.000000E+00      0.000000E+00      0.400000E+02
      0.000000E+00      0.000000E+00      0.375000E+02
      0.000000E+00      0.000000E+00      0.350000E+02
      0.000000E+00      0.000000E+00      0.325000E+02
      0.000000E+00      0.000000E+00      0.300000E+02
      0.000000E+00      0.000000E+00      0.275000E+02
      0.000000E+00      0.000000E+00      0.250000E+02
      0.000000E+00      0.000000E+00      0.225000E+02
      0.000000E+00      0.000000E+00      0.200000E+02
      0.000000E+00      0.000000E+00      0.175000E+02
      0.000000E+00      0.000000E+00      0.150000E+02
      0.000000E+00      0.000000E+00      0.125000E+02
      0.000000E+00      0.000000E+00      0.100000E+02
      0.000000E+00      0.000000E+00      0.750000E+01
      0.000000E+00      0.000000E+00      0.500000E+01
      0.000000E+00      0.000000E+00      0.250000E+01
      0.200000E+03      0.000000E+00      0.000000E+00
      0.250000E+01      0.000000E+00      0.000000E+00
      0.500000E+01      0.000000E+00      0.000000E+00
      0.750000E+01      0.000000E+00      0.000000E+00
      0.100000E+02      0.000000E+00      0.000000E+00
      0.125000E+02      0.000000E+00      0.000000E+00
      0.150000E+02      0.000000E+00      0.000000E+00
      0.175000E+02      0.000000E+00      0.000000E+00
      0.200000E+02      0.000000E+00      0.000000E+00
      0.225000E+02      0.000000E+00      0.000000E+00
      0.250000E+02      0.000000E+00      0.000000E+00
      0.275000E+02      0.000000E+00      0.000000E+00
      0.300000E+02      0.000000E+00      0.000000E+00
      0.325000E+02      0.000000E+00      0.000000E+00
      0.350000E+02      0.000000E+00      0.000000E+00
      0.375000E+02      0.000000E+00      0.000000E+00
      0.400000E+02      0.000000E+00      0.000000E+00
      0.425000E+02      0.000000E+00      0.000000E+00
      0.450000E+02      0.000000E+00      0.000000E+00
[...]
CELL_DATA        14782
SCALARS model_vp float
LOOKUP_TABLE default
   1099.7682930713897     
   1100.4226779828982     
   1100.2779617678848     
   1100.2209824481120     
   1099.6084518510340     
   1100.3449311696463     
   1099.6945947147985     
   1099.8357695797354     
   1099.7168870715373     
   1099.6891795758131     
   1099.7236248765687     
   1099.6521978928379     
   1099.6342608215066     
   1099.6923346110623     
   1099.8336429105022     
   1100.7443727611385     
   1100.3485405075398     
   1099.7833829742303     
   1099.7460577255008     
   1100.0020996479527     
   1099.7757441101421     
   1100.0308270226519     
   1099.6373821771954     
   1099.9381945964840     
   1100.0275705479271     
   1099.8885521776053     
   1099.7593260956728     
   1099.9211482093503     
   1100.0327691143405     
   1100.0245373143948     
   1099.9140774237758     
   1099.7762248294230     
   1099.7160183722583     
   1099.8356796813052     
   1100.7796443742429     
   1100.0122000027989     
   1100.7901605462885     
   1100.8515948256461     
   1100.7881673072047     
   1100.5259645001661     
   1100.2574801959756     
   1100.4558784033927     
   1100.5865151977669     
   1100.5891304800600     
   1099.8461379235418     
   1099.9936884968392     
   1100.0836576984077     
   1099.8819867052523     
   1100.0432818033864     
   1100.0303316954937     
   1100.3193134444030     
   1099.7422122579208     
   1099.8574189017738     
   1099.7500778951971     
   1100.0445703001963     
   1099.8740217600750     
   1100.1166215632545     
   1100.0630657812901     
   1100.0458033253824     
   1100.2464644665881     
   1099.8985686432006     
   1099.7839105123148     
   1100.1125370735181     
   1100.4685346619835     
   1099.9096567587123     
   1100.5350526667605     
   1100.1102227755644     
   1100.6519689793533     
   1100.3034010383092     
   1100.4225990542075     
   1098.3511637888523     
   1099.3865306290515     
   1100.5704708997325     
   1100.7390168771419     
   1100.1396012367529     
   1099.9980500891058     
   1099.8286747035952     
   1100.1064651967729     
   1099.9985614636939     
   1099.8749765421007     
   1100.3193297945845     
   1100.1763780308395     
   1100.2614245116081     
   1100.1619440359125     
   1099.8982168551443     
   1100.1966680578173     
   1100.4384903765026     
   1100.2232093939347     
   1100.4518199987340     
   1099.9687768829845     
   1099.9300722532423     
   1100.0453615943022     
   1098.5680775848689     
   1100.0725962023448     
   1099.9732832781665     
   1100.6820188315585     
   1100.6847715881897     
   1099.0416195918415     
   1100.3500480400535     
   1100.5371457004067     
   1100.2946218901632     
   1100.0379185881061     
   1099.8447555599973     
   1099.8247434559244     
   1099.9910890973604     
   1098.3879464286258     
   1100.3207835024955     
   1100.0648891981373     
   1100.6383542966305     
   1100.1327336189690     
   1100.3604620450369     
   1100.2326784631221     
   1100.1235743822174     
   1100.0493187964239     
   1100.3637738319946     
   1100.3348719289113     
   1100.8284346952439     
   1100.2052837944077     
   1100.8512864763475     
   1100.1115152669031     
   1100.6985247183111     
   1100.1706066814827     
   1100.4253440207344     
   1100.3904525354101     
   1100.6700844210013     
   1099.6139846835263     
   1100.8720851975031     
   1099.4871038766889     
   1100.9011142576528     
   1099.4579362207066     
   1099.5284185138580     
   1100.4628989845448     
   1100.1474041489744     
   1099.1392141889278     
   1099.8685949318681     
   1099.6541663564017     
   1099.4985261451404     
   1099.3925508033326     
   1099.3475181598990     
   1099.3982864077823     
   1099.1461602639843     
   1100.0548317242722     
   1099.9599776116004     
   1099.6695620980931     
   1099.3455466196524     
   1100.3872364020981     
   1100.9160988420040     
   1100.8864144995268     
   1100.2799558091629     
   1100.2280996590139     
   1100.5165057564996     
   1100.4023991278307     
   1100.6728475565758     
   1100.2923983089156     
   1098.7079280121218     
   1100.7309183184093     
   1100.2494043379616     
   1100.4045249635069     
   1100.6422148367465     
   1099.8200757775369     
   1100.8574359921395     
   1099.7020248853564     
   1100.8877043171542     
   1099.6604311051306     
   1100.6849675656204     
   1100.1991792938450     
   1099.4876556696106     
   1099.3084672489190     
   1099.9410931138095     
   1099.6844121977131     
   1099.6092839882833     
   1099.6674108363879     
   1099.7379819144883     
   1099.7040256320504     
   1099.5264205912390     
   1099.2645996477854     
   1098.4362606225195     
   1098.6709544374130     
   1100.2904392663288     
   1100.6764144758220     
   1099.6200392708729     
   1100.1121597805820     
   1100.7681197918259     
   1100.3623175475013     
   1100.7256615810238     
   1100.5485431622369     
   1100.2736008055683     
   1100.4248879909533     
   1099.2638868698868     
   1100.6222605810226     
   1099.1709274099589     
   1100.4645520691829     
   1100.0091210983367     
   1099.4659495683131     
   1099.7036267171786     
   1099.8886067339408     
   1099.5256625190918     
   1098.8933249515649     
   1099.0592144357813     
   1099.4460584391645     
   1099.8741651027963     
   1100.1548105263983     
   1100.1668874369495     
   1099.9037032123397     
   1099.6833610520155     
   1099.5913684947445     
   1099.7905971709686     
   1098.4468147813670     
   1099.2380370092153     
   1099.9514263733979     
   1100.2155874374721     
   1099.6245806896550     
   1100.2715250598758     
   1099.8288925610423     
   1100.2166935899118     
   1099.2623667090409     
   1098.7135440050060     
   1100.2978548451217     
   1098.5186579499796     
   1100.1632984408964     
   1098.8775834423698     
   1099.7494294211515     
   1099.3828947961867     
   1099.1630218546134     
   1099.8693409966243     
   1098.6179693288173     
   1098.3172543657024     
   1100.1308621200146     
   1099.0833796735503     
   1099.6091934170840     
   1099.9753013820389     
   1098.9440447768536     
   1100.1787563996243     
   1100.1933031653193     
   1099.5605579939083     
   1098.5868166262276     
   1098.2670464859425     
   1099.1828196097799     
   1099.0886694278945     
   1098.3983578590803     
   1098.5496780855879     
   1098.2366468840405     
   1099.5843309937552     
   1102.2991699339384     
   1099.0150957090441     
   1099.0905444975651     
   1099.3662365519535     
   1098.2604288897094     
   1099.6419855323602     
   1098.3105082428724     
   1098.6748867907220     
   1099.1488246447268     
   1099.4948637480486     
   1099.4964452908123     
   1099.3826506629064     
   1100.2092259646674     
   1099.6513680497071     
   1098.1619052456620     
   1098.2859985544997     
   1099.0605192156672     
   1100.2572812935696     
   1100.1335561500709     
   1098.9376318703939     
   1098.8448017522578     
   1098.8225695397405     
   1098.4677418625361     
   1099.6031450319663     
   1098.8337253820450     
   1098.5175808360577     
   1099.9246561847142     
   1098.5696171732627     
   1099.3397028904376     
   1098.8337842807596     
   1099.8174929658605     
   1098.6702341499176     
   1100.4959887521222     
   1100.7575898030984     
   1100.4590921497390     
   1099.7388193549225     
   1098.4441180375716     
   1099.9925610161217     
   1101.8507064948781     
   1101.1220646402112     
   1101.0292830065739     
   1101.6051330616922     
   1099.5274090737691     
   1100.2118364653795     
   1101.1627619269145     
   1100.0885562245523     
   1100.9978546013826     
   1098.9775287758459     
   1101.6298139037019     
   1099.3581967191294     
   1100.0195003258384     
   1100.1619130518834     
   1098.9790114242874     
   1101.8585254616182     
   1102.0645149826851     
   1101.6435217173832     
   1100.7370888640107     
   1098.7389147327806     
   1098.2812364724903     
   1101.6151006177658     
   1100.1385097959896     
   1100.9511624654685     
   1101.7564879979232     
   1099.5962574500747     
   1101.7457328312908     
   1102.0216268599493     
   1102.2792151998603     
   1102.4557310680084     
   1102.3337669125722     
   1100.1951004742950     
   1101.1067779803736     
   1101.9841108894645     
   1099.4784521195475     
   1102.4707449011971     
   1099.0949497239824     
   1102.4155879263631     
   1101.9330661802055     
   1101.2839628288341     
   1100.6847516763314     
   1099.8589759593503     
   1101.1178560879105     
   1101.1732892844771     
   1100.0876174703330     
   1100.8690565270365     
   1101.7806995831077     
   1100.6946765175830     
   1101.5512094592707     
   1100.8301589629689     
   1102.1470841629966     
   1100.8700316042241     
   1102.1583200694110     
   1101.2990021879425     
   1101.2896692071504     
   1100.9000819951002     
   1100.4920025050615     
   1100.6437230472607     
   1101.2278167434160     
   1102.1568723385449     
   1102.0983739693179     
   1102.8924818834621     
   1101.5985755561057     
   1103.6123147909875     
   1103.6205399083219     
   1102.5331710730161     
   1103.8020169682918     
   1104.2510559297139     
   1103.9579750881771     
   1104.6908839677731     
   1104.1455306772655     
   1102.6690783502245     
   1104.3288113925487     
   1103.3907616240281     
   1104.4124671362183     
   1104.4329179808660     
   1103.7104475054987     
   1103.1121267531432     
   1103.2452424671278     
   1102.3102373537085     
   1101.7203453144061     
   1101.2991150712639     
   1099.9676944216576     
   1100.0210211412855     
   1099.9863645134394     
   1099.9999998585722     
   1099.9999998968426     
   1100.0000000000000     
   1099.9218376061294     
   1099.9804179857290     
   1099.9156253328795     
   1099.8249579767348     
   1099.8160154795112     
   1099.9424512597277     
   1099.9178828954593     
   1099.8977045812203     
   1100.1539872787021     
   1100.2954555446856     
   1099.8543475265778     
   1099.8250860919691     
   1099.8587479171499     
   1099.7765684060460     
   1099.8855672193308     
   1100.1271696966039     
   1099.9977336509094     
   1100.0312753858454     
   1099.9404764499866     
   1099.9306229193940     
   1099.8378209345608     
   1099.9581060345461     
   1100.1034570437951     
   1100.0831647618945     
   1099.7904095512877     
   1099.8769136024259     
   1099.9900735037522     
   1099.9598085951179     
   1099.9105759885294     
   1099.8982648351575     
   1099.9226302219913     
   1099.9471300005894     
   1099.9627144544131     
   1099.9608659370062     
   1100.0087396539059     
   1099.9172645622280     
   1099.8978249158224     
   1099.9377395852475     
   1099.8450315862058     
   1099.8147697494121     
   1100.1434029522952     
   1099.8201771592730     
   1099.8573601358892     
   1099.8805270328369     
   1099.8720053850077     
   1099.8717027256782     
   1099.9963797805890     
   1099.9830765032700     
   1099.9599719944504     
   1099.9374401860453     
   1099.9226056390967     
   1100.0289707481193     
   1099.9497889182539     
   1099.9599844971158     
   1099.9747486495294     
   1100.1088321020220     
   1100.0968861342767     
   1100.0760137722127     
   1100.0864936966805     
   1100.1348931053446     
   1100.1815465890904     
   1100.2216411987611     
   1100.2509381940424     
   1100.0282925703168     
   1100.0102660923483     
   1100.1407251623577     
   1100.1611551176113     
   1100.1431936157114     
   1100.0803236211286     
   1099.9859947008451     
   1099.8005087751333     
   1099.8162878918779     
   1099.8690103376257     
   1099.9411284491796     
   1100.0528478795754     
   1100.1351558544500     
   1100.0662477166504     
   1100.0545660093694     
   1100.0314217536607     
   1099.8757846757112     
   1100.0111593211948     
   1099.9570442961563     
   1100.0033353731656     
   1100.0338129916606     
   1100.0845607739977     
   1099.7592696870706     
   1100.0509567319993     
   1100.1002875495501     
   1100.0717309479373     
   1100.0870782223844     
   1100.0859291248767     
   1100.0609875574164     
   1100.0917476583397     
   1100.0390978677294     
   1100.0900274329681     
   1100.0329116562466     
   1100.0843611129440     
   1100.0452706201083     
   1100.0803197310995     
   1100.0715307770604     
   1099.6912034412285     
   1100.0967012169183     
   1100.1327910585069     
   1100.1532397312960     
   1100.1617257166113     
   1100.1584069658811     
   1099.8029326336434     
   1100.1455598493003     
   1100.1551650950246     
   1100.0963592396458     
   1100.0610888951164     
   1100.6987250242519     
   1100.5253060242501     
   1099.6275515596824     
   1100.0578430268895     
   1100.2063656984990     
   1100.1126438436766     
   1100.0753741375361     
   1100.0592928822109     
   1100.0718105101171     
   1099.8886470054290     
   1099.9827356201836     
   1100.1024596481166     
   1100.0698387373029     
   1099.9981856130623     
   1100.1009489747942     
   1100.1699646010670     
   1100.1886564026950     
   1100.1601915223166     
   1100.1631946198563     
   1100.2423110299942     
   1100.1163077099352     
   1100.2627671516109     
   1100.0747951756412     
   1100.2654912759201     
   1100.0714140865855     
   1100.1101498684766     
   1100.1620568318776     
   1100.2137415891882     
   1100.2550144651802     
   1100.2803774334998     
   1100.2877413006647     
   1100.2771036791451     
   1100.2496443123014     
   1100.2076661160031     
   1100.0097257693585     
   1099.9490511880749     
   1099.5465676971692     
   1099.5527437372673     
   1099.8746478589885     
   1099.8955343363082     
   1100.0651580516235     
   1100.2524186380410     
   1100.2447254472938     
   1100.2199480330310     
   1100.2542095974813     
   1099.9663911468158     
   1100.1509517281520     
   1100.1330002012771     
   1100.2146401230825     
   1100.2361232533171     
   1100.2009501953032     
   1099.9163772959339     
   1100.0363797392904     
   1100.0388590815198     
   1100.2317288288066     
   1100.0737666628368     
   1100.2561174020084     
   1100.1258657558938     
   1100.2172074766088     
   1100.1785410917353     
   1100.1418399483116     
   1100.0662063036857     
   1100.0219155958034     
   1100.0198781938229     
   1100.2447802780407     
   1100.0157223301896     
   1100.2238742849966     
   1100.0477721144121     
   1100.1913875941129     
   1100.0981435258723     
   1100.1479122260046     
   1100.1478549282247     
   1100.0936119788055     
   1100.1841100977740     
   1100.0297613567150     
   1100.2019278520086     
   1100.2026101545439     
   1100.1902957947771     
   1100.1686424853608     
   1100.1396413779905     
   1100.1039817040537     
   1099.8008435288327     
   1099.8006215451089     
   1100.0850336836431     
   1100.0082211924748     
   1100.1103025567536     
   1100.1122953805350     
   1100.0336993817821     
   1099.9778942598957     
   1100.2521932336363     
   1100.2861607692641     
   1100.2438494522426     
   1100.0505824322584     
   1099.9944587353468     
   1100.0435646260066     
   1100.0308873199951     
   1100.0883916190221     
   1100.0413394069087     
   1099.9626530092626     
   1100.0864144809475     
   1099.9406886232066     
   1100.0493185249136     
   1099.9683411930075     
   1099.9702906225418     
   1100.0196205591017     
   1099.9394857624281     
   1099.9157346781142     
   1100.0734416554965     
   1100.0358236382033     
   1099.8491099333614     
   1099.9831651037086     
   1099.9271095772235     
   1099.8766889063461     
   1099.8135060643860     
   1099.5684953180935     
   1099.6173665981944     
   1099.9971311854233     
   1099.6767155911471     
   1099.7383243749114     
   1099.8140103789547     
   1099.7950474285412     
   1099.9220460834958     
   1100.2679927940937     
   1100.1581324051160     
   1100.0231811609249     
   1099.8876261339742     
   1100.2715465222359     
   1100.1601327343792     
   1100.0555861797566     
   1100.0153507008561     
   1100.0337296091534     
   1099.9019706269291     
   1099.9753593416699     
   1099.8594534829360     
   1099.8968017961529     
   1099.8882291666255     
   1099.9567662230936     
   1100.4292507994753     
   1100.0218899821461     
   1099.6337984280062     
   1100.0500947453475     
   1099.6134849989980     
   1100.0284597653854     
   1099.6179641650394     
   1099.9648150992539     
   1099.6460036572175     
   1099.8783511977008     
   1099.7877798953932     
   1099.7051027451178     
   1099.6363011551455     
   1099.5843059346182     
   1099.5666251774278     
   1099.5863760881655     
   1099.7652500932300     
   1099.5315818102665     
   1099.5608977015388     
   1099.7059712793603     
   1099.7831409699186     
   1099.7957932618024     
   1099.8799869268666     
   1099.9724689183574     
   1100.0311740175036     
   1100.0218142584199     
   1099.8669085732822     
   1100.0063303557670     
   1100.1655131787070     
   1099.8030669444915     
   1099.8273721648836     
   1099.9091751158260     
   1099.9966543372213     
   1100.0071190179483     
   1100.0439813059027     
   1099.8542238718637     
   1099.9661718197024     
   1099.8750498502891     
   1099.8816735907969     
   1099.9806896618643     
   1099.6463889031074     
   1100.0393264400773     
   1099.5995505745559     
   1100.0330102767455     
   1099.9701807680844     
   1099.5196041773431     
   1099.8791983980052     
   1099.5354268276383     
   1099.5848794856067     
   1099.7229285009503     
   1099.6798929606202     
   1099.6521036808822     
   1099.6003407939982     
   1099.5756715030220     
   1099.8263684118917     
   1099.8110764801340     
   1099.8418091355884     
   1099.8174474413916     
   1099.9756942999104     
   1099.7314663506484     
   1099.8428152641839     
   1099.7326984375529     
   1099.8207786355115     
   1099.9396483762014     
   1099.7174986411642     
   1099.7017046376798     
   1099.7882008319623     
   1099.7493202983176     
   1099.9151238655652     
   1099.7479198044537     
   1100.0097463659592     
   1099.7785740370384     
   1100.0282591400796     
   1099.9712982127337     
   1099.8756289000351     
   1099.8390015926118     
   1099.7894472794217     
   1099.7749352403337     
   1099.7487708510857     
   1099.9051215318691     
   1099.9717464401704     
   1100.0046772655942     
   1100.4853441265641     
   1100.3339913364025     
   1100.3672896883315     
   1100.1506374884675     
   1100.0097572138079     
   1099.9825139521506     
   1099.8620654123386     
   1100.0224608077272     
   1099.9708139326815     
   1099.8657299778499     
   1099.7668201820586     
   1099.7242214599635     
   1099.9681538069451     
   1099.8622113267154     
   1100.0040568420382     
   1099.8658208866284     
   1100.2721754998965     
   1099.7568678857308     
   1100.3477807802919     
   1099.7070355884177     
   1099.7430840151014     
   1099.8566758901948     
   1100.0177268121761     
   1100.1905664635162     
   1100.3449739958533     
   1100.4603900055040     
   1100.5342140190558     
   1100.7270108160394     
   1100.6369868215388     
   1100.1973955896906     
   1100.3702190143929     
   1100.5172123101770     
   1100.1963677818198     
   1100.3560659686955     
   1100.5958426250743     
   1100.3721928297791     
   1100.4458083791769     
   1100.4462707695511     
   1100.4020647936397     