# vtk DataFile Version 3.1
Mesh with Data
ASCII
DATASET UNSTRUCTURED_GRID
POINTS         7552 float
      0.200000E+03      0.000000E+00      0.200000E+03
      0.000000E+00      0.000000E+00      0.200000E+03
      0.197500E+03      0.000000E+00      0.200000E+03
      0.195000E+03      0.000000E+00      0.200000E+03
      0.192500E+03      0.000000E+00      0.200000E+03
      0.190000E+03      0.000000E+00      0.200000E+03
      0.187500E+03      0.000000E+00      0.200000E+03
      0.185000E+03      0.000000E+00      0.200000E+03
      0.182500E+03      0.000000E+00      0.200000E+03
      0.180000E+03      0.000000E+00      0.200000E+03
      0.177500E+03      0.000000E+00      0.200000E+03
      0.175000E+03      0.000000E+00      0.200000E+03
      0.172500E+03      0.000000E+00      0.200000E+03
      0.170000E+03      0.000000E+00      0.200000E+03
      0.167500E+03      0.000000E+00      0.200000E+03
      0.165000E+03      0.000000E+00      0.200000E+03
      0.162500E+03      0.000000E+00      0.200000E+03
      0.160000E+03      0.000000E+00      0.200000E+03
      0.157500E+03      0.000000E+00      0.200000E+03
      0.155000E+03      0.000000E+00      0.200000E+03
      0.152500E+03      0.000000E+00      0.200000E+03
      0.150000E+03      0.000000E+00      0.200000E+03
      0.147500E+03      0.000000E+00      0.200000E+03
      0.145000E+03      0.000000E+00      0.200000E+03
      0.142500E+03      0.000000E+00      0.200000E+03
      0.140000E+03      0.000000E+00      0.200000E+03
      0.137500E+03      0.000000E+00      0.200000E+03
      0.135000E+03      0.000000E+00      0.200000E+03
      0.132500E+03      0.000000E+00      0.200000E+03
      0.130000E+03      0.000000E+00      0.200000E+03
      0.127500E+03      0.000000E+00      0.200000E+03
      0.125000E+03      0.000000E+00      0.200000E+03
      0.122500E+03      0.000000E+00      0.200000E+03
      0.120000E+03      0.000000E+00      0.200000E+03
      0.117500E+03      0.000000E+00      0.200000E+03
      0.115000E+03      0.000000E+00      0.200000E+03
      0.112500E+03      0.000000E+00      0.200000E+03
      0.110000E+03      0.000000E+00      0.200000E+03
      0.107500E+03      0.000000E+00      0.200000E+03
      0.105000E+03      0.000000E+00      0.200000E+03
      0.102500E+03      0.000000E+00      0.200000E+03
      0.100000E+03      0.000000E+00      0.200000E+03
      0.975000E+02      0.000000E+00      0.200000E+03
      0.950000E+02      0.000000E+00      0.200000E+03
      0.925000E+02      0.000000E+00      0.200000E+03
      0.900000E+02      0.000000E+00      0.200000E+03
      0.875000E+02      0.000000E+00      0.200000E+03
      0.850000E+02      0.000000E+00      0.200000E+03
      0.825000E+02      0.000000E+00      0.200000E+03
      0.800000E+02      0.000000E+00      0.200000E+03
      0.775000E+02      0.000000E+00      0.200000E+03
      0.750000E+02      0.000000E+00      0.200000E+03
      0.725000E+02      0.000000E+00      0.200000E+03
      0.700000E+02      0.000000E+00      0.200000E+03
      0.675000E+02      0.000000E+00      0.200000E+03
      0.650000E+02      0.000000E+00      0.200000E+03
      0.625000E+02      0.000000E+00      0.200000E+03
      0.600000E+02      0.000000E+00      0.200000E+03
      0.575000E+02      0.000000E+00      0.200000E+03
      0.550000E+02      0.000000E+00      0.200000E+03
      0.525000E+02      0.000000E+00      0.200000E+03
      0.500000E+02      0.000000E+00      0.200000E+03
      0.475000E+02      0.000000E+00      0.200000E+03
      0.450000E+02      0.000000E+00      0.200000E+03
      0.425000E+02      0.000000E+00      0.200000E+03
      0.400000E+02      0.000000E+00      0.200000E+03
      0.375000E+02      0.000000E+00      0.200000E+03
      0.350000E+02      0.000000E+00      0.200000E+03
      0.325000E+02      0.000000E+00      0.200000E+03
      0.300000E+02      0.000000E+00      0.200000E+03
      0.275000E+02      0.000000E+00      0.200000E+03
      0.250000E+02      0.000000E+00      0.200000E+03
      0.225000E+02      0.000000E+00      0.200000E+03
      0.200000E+02      0.000000E+00      0.200000E+03
      0.175000E+02      0.000000E+00      0.200000E+03
      0.150000E+02      0.000000E+00      0.200000E+03
      0.125000E+02      0.000000E+00      0.200000E+03
      0.100000E+02      0.000000E+00      0.200000E+03
      0.750000E+01      0.000000E+00      0.200000E+03
      0.500000E+01      0.000000E+00      0.200000E+03
      0.250000E+01      0.000000E+00      0.200000E+03
      0.000000E+00      0.000000E+00      0.000000E+00
      0.000000E+00      0.000000E+00      0.197500E+03
      0.000000E+00      0.000000E+00      0.195000E+03
      0.000000E+00      0.000000E+00      0.192500E+03
      0.000000E+00      0.000000E+00      0.190000E+03
      0.000000E+00      0.000000E+00      0.187500E+03
      0.000000E+00      0.000000E+00      0.185000E+03
      0.000000E+00      0.000000E+00      0.182500E+03
      0.000000E+00      0.000000E+00      0.180000E+03
      0.000000E+00      0.000000E+00      0.177500E+03
      0.000000E+00      0.000000E+00      0.175000E+03
      0.000000E+00      0.000000E+00      0.172500E+03
      0.000000E+00      0.000000E+00      0.170000E+03
      0.000000E+00      0.000000E+00      0.167500E+03
      0.000000E+00      0.000000E+00      0.165000E+03
      0.000000E+00      0.000000E+00      0.162500E+03
      0.000000E+00      0.000000E+00      0.160000E+03
      0.000000E+00      0.000000E+00      0.157500E+03
      0.000000E+00      0.000000E+00      0.155000E+03
      0.000000E+00      0.000000E+00      0.152500E+03
      0.000000E+00      0.000000E+00      0.150000E+03
      0.000000E+00      0.000000E+00      0.147500E+03
      0.000000E+00      0.000000E+00      0.145000E+03
      0.000000E+00      0.000000E+00      0.142500E+03
      0.000000E+00      0.000000E+00      0.140000E+03
      0.000000E+00      0.000000E+00      0.137500E+03
      0.000000E+00      0.000000E+00      0.135000E+03
      0.000000E+00      0.000000E+00      0.132500E+03
      0.000000E+00      0.000000E+00      0.130000E+03
      0.000000E+00      0.000000E+00      0.127500E+03
      0.000000E+00      0.000000E+00      0.125000E+03
      0.000000E+00      0.000000E+00      0.122500E+03
      0.000000E+00      0.000000E+00      0.120000E+03
      0.000000E+00      0.000000E+00      0.117500E+03
      0.000000E+00      0.000000E+00      0.115000E+03
      0.000000E+00      0.000000E+00      0.112500E+03
      0.000000E+00      0.000000E+00      0.110000E+03
      0.000000E+00      0.000000E+00      0.107500E+03
      0.000000E+00      0.000000E+00      0.105000E+03
      0.000000E+00      0.000000E+00      0.102500E+03
      0.000000E+00      0.000000E+00      0.100000E+03
      0.000000E+00      0.000000E+00      0.975000E+02
      0.000000E+00      0.000000E+00      0.950000E+02
      0.000000E+00      0.000000E+00      0.925000E+02
      0.000000E+00      0.000000E+00      0.900000E+02
      0.000000E+00      0.000000E+00      0.875000E+02
      0.000000E+00      0.000000E+00      0.850000E+02
      0.000000E+00      0.000000E+00      0.825000E+02
      0.000000E+00      0.000000E+00      0.800000E+02
      0.000000E+00      0.000000E+00      0.775000E+02
      0.000000E+00      0.000000E+00      0.750000E+02
      0.000000E+00      0.000000E+00      0.725000E+02
      0.000000E+00      0.000000E+00      0.700000E+02
      0.000000E+00      0.000000E+00      0.675000E+02
      0.000000E+00      0.000000E+00      0.650000E+02
      0.000000E+00      0.000000E+00      0.625000E+02
      0.000000E+00      0.000000E+00      0.600000E+02
      0.000000E+00      0.000000E+00      0.575000E+02
      0.000000E+00      0.000000E+00      0.550000E+02
      0.000000E+00      0.000000E+00      0.525000E+02
      0.000000E+00      0.000000E+00      0.500000E+02
      0.000000E+00      0.000000E+00      0.475000E+02
      0.000000E+00      0.000000E+00      0.450000E+02
      0.000000E+00      0.000000E+00      0.425000E+02
      0.000000E+00      0.000000E+00      0.400000E+02
      0.000000E+00      0.000000E+00      0.375000E+02
      0.000000E+00      0.000000E+00      0.350000E+02
      0.000000E+00      0.000000E+00      0.325000E+02
      0.000000E+00      0.000000E+00      0.300000E+02
      0.000000E+00      0.000000E+00      0.275000E+02
      0.000000E+00      0.000000E+00      0.250000E+02
      0.000000E+00      0.000000E+00      0.225000E+02
      0.000000E+00      0.000000E+00      0.200000E+02
      0.000000E+00      0.000000E+00      0.175000E+02
      0.000000E+00      0.000000E+00      0.150000E+02
      0.000000E+00      0.000000E+00      0.125000E+02
      0.000000E+00      0.000000E+00      0.100000E+02
      0.000000E+00      0.000000E+00      0.750000E+01
      0.000000E+00      0.000000E+00      0.500000E+01
      0.000000E+00      0.000000E+00      0.250000E+01
      0.200000E+03      0.000000E+00      0.000000E+00
      0.250000E+01      0.000000E+00      0.000000E+00
      0.500000E+01      0.000000E+00      0.000000E+00
      0.750000E+01      0.000000E+00      0.000000E+00
      0.100000E+02      0.000000E+00      0.000000E+00
      0.125000E+02      0.000000E+00      0.000000E+00
      0.150000E+02      0.000000E+00      0.000000E+00
      0.175000E+02      0.000000E+00      0.000000E+00
      0.200000E+02      0.000000E+00      0.000000E+00
      0.225000E+02      0.000000E+00      0.000000E+00
      0.250000E+02      0.000000E+00      0.000000E+00
      0.275000E+02      0.000000E+00      0.000000E+00
      0.300000E+02      0.000000E+00      0.000000E+00
      0.325000E+02      0.000000E+00      0.000000E+00
      0.350000E+02      0.000000E+00      0.000000E+00
      0.375000E+02      0.000000E+00      0.000000E+00
      0.400000E+02      0.000000E+00      0.000000E+00
      0.425000E+02      0.000000E+00      0.000000E+00
      0.450000E+02      0.000000E+00      0.000000E+00
[...]
CELL_DATA        14782
SCALARS model_vs float
LOOKUP_TABLE default
   649.57017175055159     
   649.80990424355969     
   649.67368237415224     
   650.25156126799311     
   649.89928529764995     
   649.59348680991093     
   650.21573579452718     
   650.53721693728755     
   650.47673588186910     
   650.32722629080820     
   650.06067701515587     
   650.33173889212469     
   650.34962567529692     
   650.08909235798842     
   649.77564585981725     
   649.74055239213374     
   649.36568242684655     
   650.31111181087203     
   649.57388136265718     
   649.49813712339221     
   649.65604462047929     
   649.65014875924464     
   650.01777128734318     
   649.38376358626010     
   649.33215461858902     
   649.78631017213479     
   650.08725542078912     
   649.28767847632616     
   649.22856330113598     
   649.39859080246435     
   649.69613621321241     
   649.99707821643858     
   650.32241308734126     
   650.33336451053231     
   649.76023155685334     
   650.29006515586673     
   649.92770725391199     
   649.70492650210315     
   649.94785093435621     
   649.23817905533178     
   649.03827022019868     
   648.86155800228642     
   648.78692734410527     
   648.89419231348552     
   650.08767406490153     
   649.77970873595609     
   649.44504692830390     
   649.26012735777499     
   649.23565355325502     
   650.47572898334988     
   650.13148633605306     
   650.25227451189562     
   649.33397210163992     
   650.22755753233855     
   649.34038001393617     
   650.04007073679543     
   649.57171593639112     
   649.77416948377129     
   649.92399916854390     
   649.53660849531923     
   650.23926349989051     
   650.38710636253347     
   649.72788639124474     
   649.73082748443755     
   650.03834385909420     
   649.87932068693237     
   649.66221410469461     
   649.96709570185726     
   649.30767011248133     
   649.08375658063528     
   651.13594413610542     
   650.70936826967284     
   649.99866661168437     
   650.09554994194218     
   649.97494120009287     
   649.62078746517193     
   649.81742175818647     
   650.50090355475686     
   650.12398530446012     
   650.47369872708828     
   650.24434479505692     
   649.86399704614576     
   650.37538721224178     
   650.18411569586726     
   650.59798197419718     
   649.99392514446356     
   649.88235324688549     
   649.65337436752259     
   649.20272183413272     
   650.60731591089666     
   650.48324498167892     
   650.13755770435455     
   650.05006416641902     
   649.22822481677872     
   649.40236904066148     
   648.95434418631112     
   648.87463123385362     
   650.43121632387317     
   650.46408211535254     
   648.97205376268687     
   649.16187283723957     
   649.34483634178059     
   649.46644686830132     
   649.79363351922734     
   650.26340024027422     
   651.88262608505750     
   650.49245444450662     
   650.32325175564813     
   649.42804086238664     
   650.12382723328949     
   650.10545471889600     
   650.19907944090539     
   650.46129746010206     
   650.38790840355489     
   649.75296520218183     
   650.25548281847057     
   649.26863437901341     
   650.33647637224612     
   649.29347865965258     
   650.31075725849416     
   649.43392091921328     
   650.11205813987760     
   649.59799825353400     
   649.80844829276782     
   649.55541469934144     
   649.88827768101737     
   649.47545022352767     
   649.96599602621620     
   649.57061614555130     
   650.10515454525819     
   650.42673575898948     
   649.86900014986759     
   649.90260680944061     
   651.98952501457075     
   649.88374673773330     
   649.91121418945716     
   650.04209475657069     
   650.23478167561052     
   650.43329859133644     
   649.96289811052475     
   650.67080423527489     
   650.01591042431005     
   650.10250167340303     
   650.30139636412378     
   650.47326545165231     
   650.00636693840920     
   649.96449114960069     
   649.76207922720971     
   650.24829827790961     
   650.14145345221459     
   649.87250906678389     
   649.93792575743009     
   649.75759084702952     
   650.16742090380478     
   648.57100148599000     
   650.23121563989366     
   650.18098117666432     
   650.38762454238781     
   649.80965987616196     
   650.05549596721596     
   649.78854904704201     
   649.74960316672536     
   649.98799226306869     
   649.64982573093323     
   650.28218180916451     
   651.35517763369921     
   650.36719717330971     
   650.70400589152609     
   650.49567142472870     
   650.26808734861208     
   649.90099081981884     
   649.60514189075695     
   649.61993466790977     
   650.00782828729359     
   650.50667367892538     
   650.68084590628803     
   650.57762965709537     
   651.56159538823192     
   650.19714913826681     
   649.75737064113548     
   650.41596333007033     
   650.25872428112245     
   649.80698805532961     
   649.86230839445329     
   649.72423853499367     
   650.03430094278758     
   650.19810766157036     
   649.93177042327488     
   650.51145449150829     
   649.73218218980492     
   650.54123855838031     
   649.93205659788350     
   650.10947605998683     
   650.25429431070552     
   650.38955879812033     
   650.09666569752858     
   650.15965529902087     
   650.68034853343488     
   650.93747052957860     
   651.05414942382390     
   650.89747497659323     
   650.48275260125774     
   650.02807231846418     
   649.78154415451934     
   651.88629666306883     
   650.37130204440416     
   649.84378397473449     
   650.67219003567936     
   650.32395249725209     
   649.97737401286383     
   650.08141895700612     
   650.26812963855684     
   650.08245740715961     
   650.25195823829108     
   649.90861954536570     
   648.50508073046842     
   650.41679023950644     
   649.93866015303786     
   651.12486546468836     
   650.19616599836615     
   651.67901234605051     
   650.43462769842006     
   652.10205429825066     
   650.53968007574986     
   652.06370389488370     
   650.61858632229257     
   650.80753934551262     
   649.23531446842287     
   651.88336050211797     
   652.19585347788552     
   651.86501694998458     
   649.17082703018150     
   650.88796835362564     
   649.66269628943701     
   650.98811433377830     
   651.53312148378188     
   651.32644370339892     
   648.93218819037156     
   650.43441320775094     
   648.58619028914097     
   650.60352464384675     
   650.93461324473901     
   649.87278249753899     
   651.99374877475634     
   651.45952745830073     
   649.94782296932385     
   651.22695994173375     
   650.43680628761729     
   650.75337887003184     
   651.03080265225663     
   651.45449130509587     
   651.41839618817278     
   650.96176616438504     
   649.96805091276838     
   649.88904634935284     
   650.07624282587301     
   650.51867903960749     
   651.42335196796489     
   650.92544256598842     
   648.87368876349694     
   650.24309372274490     
   650.62465965878062     
   649.94385397346264     
   648.27093534664164     
   648.23564666835011     
   649.15069714489482     
   650.51771342364293     
   648.23539944629965     
   647.93680246056988     
   649.56011933088405     
   648.23013170263255     
   649.01008458096260     
   649.08697008154547     
   649.47711451027294     
   649.83930841607207     
   649.85333804890047     
   649.94957900744896     
   649.73859855343494     
   649.34622101683271     
   649.62396782440555     
   649.95247120906458     
   647.83107133839417     
   648.79016619620791     
   649.19576467395916     
   648.26761885090013     
   650.48380096984272     
   651.45081740288413     
   651.39436652538313     
   648.56936020706564     
   648.36792595976613     
   648.88434704003555     
   648.55981920493377     
   649.28845582386111     
   649.90848353734020     
   649.34575150717831     
   650.47312228018200     
   648.04178341269267     
   647.71246738155139     
   648.13919257115413     
   649.23577044563615     
   651.42986438515072     
   651.81956101444723     
   649.68317720939240     
   649.83512829796803     
   647.83382842422486     
   646.84769121265151     
   650.27200042455138     
   652.90359682608607     
   650.26077412559994     
   650.56405368181743     
   648.62957162739156     
   647.25201784219314     
   651.80763955285033     
   652.39030682244641     
   651.69502731284979     
   651.69363511994777     
   650.11511298485902     
   652.37931397330431     
   648.26673851284431     
   646.84655600900180     
   646.61159949139073     
   647.90697193202493     
   651.72055151570191     
   648.18028251011367     
   647.61187934867075     
   651.22968090964503     
   652.73950862384493     
   649.00407433298926     
   652.70320987822595     
   652.97965512057317     
   646.79561357852219     
   652.13857042436257     
   646.99134106138035     
   650.88662082128781     
   649.51195259026701     
   649.86758698069025     
   648.68905733812801     
   647.92358977453455     
   647.42358675359969     
   647.36509822314792     
   648.33255776076555     
   648.20268784996892     
   647.20065364260972     
   649.00255356441323     
   645.99922444325023     
   645.63244422540663     
   649.29248156623726     
   646.73455647126275     
   645.32060995673112     
   645.08080988885627     
   647.71255783294089     
   649.70797877222742     
   652.75578766239823     
   647.00502262176349     
   652.95632902685816     
   650.87008494177689     
   649.92995052505228     
   649.32119097667453     
   655.09801305262977     
   653.68877037784273     
   655.68180655281378     
   652.92875117375752     
   655.01019385269376     
   650.15033722258454     
   649.71342042110712     
   649.99905629859495     
   649.99999962904963     
   649.99999943055047     
   650.00000000000000     
   649.48730305695381     
   649.92625646854560     
   649.93114138346971     
   650.25164465295870     
   650.05700446982212     
   649.94437625633418     
   649.45269457223014     
   649.88570811320233     
   649.68393409690975     
   649.27927734615389     
   650.06460525672139     
   650.17774665556465     
   650.27848228900302     
   650.90046689391363     
   649.81615431394255     
   649.69461126752174     
   649.82656048268746     
   649.81595731809489     
   649.61521390664063     
   649.54317959041020     
   649.97884660444242     
   649.79685488466657     
   649.80782218311833     
   649.74080366059775     
   650.43699601653304     
   649.73526694828490     
   649.59959250031704     
   649.71632474284377     
   649.85641149369496     
   649.50963487230263     
   649.50594590501782     
   649.52972165493225     
   649.58502689427803     
   649.67406470166543     
   649.70292454958576     
   650.26107677270329     
   649.92938408036207     
   649.79293491503256     
   650.26866890776694     
   650.22093634096041     
   649.57880767930988     
   650.12864290984612     
   650.00112913794976     
   649.53767061413919     
   649.58771022225847     
   649.65585703263525     
   649.51598357238356     
   649.46543621262208     
   649.44068413291802     
   649.43262693013685     
   649.43623868643988     
   649.88708748316355     
   649.69238389768213     
   649.76117120299944     
   649.80857554375280     
   649.74950762759636     
   649.78166365919333     
   649.78762513623906     
   649.94313056831879     
   649.87634461737252     
   649.80121898108973     
   649.75611044259961     
   649.77317571019523     
   649.61339005540333     
   649.66300387815579     
   649.82137713526686     
   649.73560285923179     
   649.71643354119544     
   649.76304813829518     
   649.85313599973244     
   650.17111704058925     
   650.07012556136624     
   649.94482947070026     
   649.81457086778664     
   649.62965942425546     
   649.48072588490470     
   649.60315664985296     
   649.61667754109067     
   649.65094207502807     
   649.94405831961888     
   649.68145698416015     
   649.82799849297737     
   649.68800943842098     
   649.73383425987629     
   649.68417616068587     
   650.21576166975967     
   649.55693189212093     
   649.69010872742945     
   649.51641596118509     
   649.74517209876808     
   649.51033712624678     
   649.82686855661973     
   649.54173261279016     
   649.90496142602319     
   649.59816186110538     
   649.95161458550410     
   649.66077851497460     
   649.94980786911515     
   649.71219831193662     
   649.89757964351372     
   650.27517525865323     
   649.74255422967815     
   649.70516812048606     
   649.61947711354776     
   649.57611381207539     
   649.58433219867186     
   650.25766613693065     
   649.63179956667091     
   649.90608574154101     
   649.99194211098484     
   650.05399636429763     
   650.05359307226433     
   649.86313343517361     
   650.50048661125902     
   650.12313186811855     
   650.26333566542803     
   650.35532697417284     
   650.31674327684971     
   650.22706741499223     
   649.57073365520625     
   649.95425710852965     
   649.81918769342963     
   649.95312348614618     
   650.09864708532552     
   649.85166240338958     
   649.74529274460713     
   649.67285045500194     
   649.66523397980097     
   650.33745151878998     
   649.72974519134732     
   650.14162683069583     
   649.84816202957006     
   649.99531723597465     
   649.98902891470345     
   649.86016454384264     
   650.23336203043448     
   650.31324529057372     
   650.35900217576125     
   650.36387920359755     
   650.31920627516115     
   650.22289832616582     
   650.09106015821635     
   649.95985973164647     
   649.87153573312366     
   649.85462499052062     
   650.06204415214177     
   650.13737371076252     
   650.21098575127962     
   650.01852330757936     
   650.12080531651691     
   650.17340352909196     
   649.93006283178556     
   650.17589926756170     
   650.08370378727000     
   649.96000270846685     
   649.41824682185768     
   649.85557217644168     
   649.47104874532090     
   649.64196635290159     
   649.49546741288304     
   649.41331493432426     
   649.41456882153761     
   651.15592562727113     
   649.64664170010008     
   649.69370520093196     
   649.40073053386334     
   649.72476315483311     
   649.29552337548262     
   649.76802179819413     
   649.28705493298457     
   649.84620969705384     
   649.35300397546575     
   649.44160719163028     
   649.56168814694854     
   649.50093665906365     
   650.20166644492406     
   649.50622337075913     
   650.15580219747164     
   649.47038841240487     
   650.07332327657605     
   649.43396313802566     
   650.01050057766258     
   649.44291012139570     
   650.01082616026213     
   649.52681964186934     
   650.08011475304625     
   649.68477347331373     
   649.88092029916538     
   650.05613410683009     
   650.15569747876191     
   650.16049648609976     
   650.10444500991525     
   650.21448791567866     
   650.14539474107391     
   649.70039839740252     
   649.67355602493694     
   649.19709264924052     
   649.27257095816833     
   650.97593086629956     
   651.08880746105717     
   649.30761973839719     
   649.23051610865582     
   649.29706244643501     
   649.67319890350848     
   649.77695281207502     
   649.61716394643054     
   650.42411045294352     
   649.42988044357492     
   649.98231676510659     
   650.21451356734042     
   649.24086350747177     
   650.31813063900677     
   649.41194576529222     
   650.28325221980890     
   649.94652690638623     
   650.13900800084912     
   650.14104287665452     
   650.20774897146623     
   649.49309040870435     
   649.35577691514789     
   650.12299188431098     
   649.33612032864039     
   649.45958774287931     
   649.70134357115603     
   650.18612544493783     
   650.37421468164757     
   650.39191891644930     
   650.02094430028569     
   649.78367753853684     
   649.81597867052858     
   649.99518437311792     
   650.67352491896293     
   650.93539057703754     
   649.74171682731821     
   650.15535920591162     
   650.59178255706456     
   651.12185040301904     
   649.89100916403356     
   650.33801356619506     
   650.84427339886702     
   650.78820356695792     
   650.68801984623462     
   651.12420660178191     
   650.48867920575697     
   651.28563625689412     
   650.24485523522355     
   651.28788992288025     
   651.20175556101401     
   649.43363443282010     
   651.10577992578601     
   649.91703375085569     
   651.04212152235073     
   650.14164920389806     
   651.00282841515468     
   650.32339573261572     
   650.94339641705528     
   650.36392922835728     
   650.81326334644689     
   650.59072549272128     
   650.30908887380667     
   650.05843748706343     
   649.94560118995605     
   650.02616311465897     
   650.20192288357248     
   649.75273159520850     
   650.05624696461075     
   650.25121137707038     
   650.94283203221789     
   650.89941234967762     
   649.58564619297306     
   649.44852867676036     
   649.34957650885610     
   649.32023197779290     
   649.40651344224057     
   651.08715973450580     
   650.86304124224012     
   650.48888134202980     
   651.11023030987201     
   650.95494100236817     
   650.71215722006639     
   650.49655636762111     
   650.79487610854676     
   650.39232781567182     
   650.94742307784463     
   650.56257571489675     
   650.74655539148284     
   650.35414063793553     
   650.06075468039114     
   650.82443065670202     
   649.88631006288574     
   650.55897577800545     
   649.86518354972043     
   649.97996191678180     
   650.07046954288853     
   650.18816936201881     
   650.23811250098811     
   650.38111216573236     
   650.66029822905045     
   650.77877381672135     
   650.72605006731987     
   650.20461564550317     
   650.00847995752702     
   649.85376386301016     
   649.95367809275217     
   650.34233407198883     
   650.31670814423285     
   649.72775030961373     
   650.32985384366611     
   650.68067074932310     
   650.58685532313336     
   649.97504673560923     
   649.63516058874382     
   650.51184474466197     
   650.28964295567505     
   649.96372260999510     
   649.75329923792640     
   649.64554443827171     
   649.95123797405324     
   649.43902040261742     
   650.15884848030305     
   649.37737407811858     
   649.42422502506088     
   649.51629528492094     
   650.19585005186855     
   649.60605263437924     
   649.79560218409620     
   649.67942708878729     
   649.98920378800972     
   650.11595352521158     
   650.14710569928081     
   650.16375637708279     
   649.68707099933033     
   649.86420716181613     
   649.92919793612691     
   650.52359402472166     
   649.58371869430346     
   649.76502050088607     
   649.58049857667709     
   649.72147403219867     
   649.92191828734303     
   650.10143811269586     
   650.20702019490886     
   649.56996216072491     
   650.13926966065947     
   650.02273422425083     
   649.98025179984268     
   649.89962859645425     
   650.22978072701824     
   649.90891882608639     
   650.41355596710537     
   650.49636865993705     
   650.46704199065096     
   650.34342171136370     
   650.17374789872702     
   650.02136743876110     
   649.92637930814146     
   649.74136757602355     
   649.94228217123373     
   650.08274652680961     
   650.45484448409366     
   650.34780290592596     
   650.21858864327112     
   650.23573562130514     
   650.19428127100434     
   650.12441674227625     
   649.41363992504500     
   649.56206284123004     
   649.04153642624988     
   649.15892172896520     