# vtk DataFile Version 3.1
Mesh with Data
ASCII
DATASET UNSTRUCTURED_GRID
POINTS         7552 float
      0.200000E+03      0.000000E+00      0.200000E+03
      0.000000E+00      0.000000E+00      0.200000E+03
      0.197500E+03      0.000000E+00      0.200000E+03
      0.195000E+03      0.000000E+00      0.200000E+03
      0.192500E+03      0.000000E+00      0.200000E+03
      0.190000E+03      0.000000E+00      0.200000E+03
      0.187500E+03      0.000000E+00      0.200000E+03
      0.185000E+03      0.000000E+00      0.200000E+03
      0.182500E+03      0.000000E+00      0.200000E+03
      0.180000E+03      0.000000E+00      0.200000E+03
      0.177500E+03      0.000000E+00      0.200000E+03
      0.175000E+03      0.000000E+00      0.200000E+03
      0.172500E+03      0.000000E+00      0.200000E+03
      0.170000E+03      0.000000E+00      0.200000E+03
      0.167500E+03      0.000000E+00      0.200000E+03
      0.165000E+03      0.000000E+00      0.200000E+03
      0.162500E+03      0.000000E+00      0.200000E+03
      0.160000E+03      0.000000E+00      0.200000E+03
      0.157500E+03      0.000000E+00      0.200000E+03
      0.155000E+03      0.000000E+00      0.200000E+03
      0.152500E+03      0.000000E+00      0.200000E+03
      0.150000E+03      0.000000E+00      0.200000E+03
      0.147500E+03      0.000000E+00      0.200000E+03
      0.145000E+03      0.000000E+00      0.200000E+03
      0.142500E+03      0.000000E+00      0.200000E+03
      0.140000E+03      0.000000E+00      0.200000E+03
      0.137500E+03      0.000000E+00      0.200000E+03
      0.135000E+03      0.000000E+00      0.200000E+03
      0.132500E+03      0.000000E+00      0.200000E+03
      0.130000E+03      0.000000E+00      0.200000E+03
      0.127500E+03      0.000000E+00      0.200000E+03
      0.125000E+03      0.000000E+00      0.200000E+03
      0.122500E+03      0.000000E+00      0.200000E+03
      0.120000E+03      0.000000E+00      0.200000E+03
      0.117500E+03      0.000000E+00      0.200000E+03
      0.115000E+03      0.000000E+00      0.200000E+03
      0.112500E+03      0.000000E+00      0.200000E+03
      0.110000E+03      0.000000E+00      0.200000E+03
      0.107500E+03      0.000000E+00      0.200000E+03
      0.105000E+03      0.000000E+00      0.200000E+03
      0.102500E+03      0.000000E+00      0.200000E+03
      0.100000E+03      0.000000E+00      0.200000E+03
      0.975000E+02      0.000000E+00      0.200000E+03
      0.950000E+02      0.000000E+00      0.200000E+03
      0.925000E+02      0.000000E+00      0.200000E+03
      0.900000E+02      0.000000E+00      0.200000E+03
      0.875000E+02      0.000000E+00      0.200000E+03
      0.850000E+02      0.000000E+00      0.200000E+03
      0.825000E+02      0.000000E+00      0.200000E+03
      0.800000E+02      0.000000E+00      0.200000E+03
      0.775000E+02      0.000000E+00      0.200000E+03
      0.750000E+02      0.000000E+00      0.200000E+03
      0.725000E+02      0.000000E+00      0.200000E+03
      0.700000E+02      0.000000E+00      0.200000E+03
      0.675000E+02      0.000000E+00      0.200000E+03
      0.650000E+02      0.000000E+00      0.200000E+03
      0.625000E+02      0.000000E+00      0.200000E+03
      0.600000E+02      0.000000E+00      0.200000E+03
      0.575000E+02      0.000000E+00      0.200000E+03
      0.550000E+02      0.000000E+00      0.200000E+03
      0.525000E+02      0.000000E+00      0.200000E+03
      0.500000E+02      0.000000E+00      0.200000E+03
      0.475000E+02      0.000000E+00      0.200000E+03
      0.450000E+02      0.000000E+00      0.200000E+03
      0.425000E+02      0.000000E+00      0.200000E+03
      0.400000E+02      0.000000E+00      0.200000E+03
      0.375000E+02      0.000000E+00      0.200000E+03
      0.350000E+02      0.000000E+00      0.200000E+03
      0.325000E+02      0.000000E+00      0.200000E+03
      0.300000E+02      0.000000E+00      0.200000E+03
      0.275000E+02      0.000000E+00      0.200000E+03
      0.250000E+02      0.000000E+00      0.200000E+03
      0.225000E+02      0.000000E+00      0.200000E+03
      0.200000E+02      0.000000E+00      0.200000E+03
      0.175000E+02      0.000000E+00      0.200000E+03
      0.150000E+02      0.000000E+00      0.200000E+03
      0.125000E+02      0.000000E+00      0.200000E+03
      0.100000E+02      0.000000E+00      0.200000E+03
      0.750000E+01      0.000000E+00      0.200000E+03
      0.500000E+01      0.000000E+00      0.200000E+03
      0.250000E+01      0.000000E+00      0.200000E+03
      0.000000E+00      0.000000E+00      0.000000E+00
      0.000000E+00      0.000000E+00      0.197500E+03
      0.000000E+00      0.000000E+00      0.195000E+03
      0.000000E+00      0.000000E+00      0.192500E+03
      0.000000E+00      0.000000E+00      0.190000E+03
      0.000000E+00      0.000000E+00      0.187500E+03
      0.000000E+00      0.000000E+00      0.185000E+03
      0.000000E+00      0.000000E+00      0.182500E+03
      0.000000E+00      0.000000E+00      0.180000E+03
      0.000000E+00      0.000000E+00      0.177500E+03
      0.000000E+00      0.000000E+00      0.175000E+03
      0.000000E+00      0.000000E+00      0.172500E+03
      0.000000E+00      0.000000E+00      0.170000E+03
      0.000000E+00      0.000000E+00      0.167500E+03
      0.000000E+00      0.000000E+00      0.165000E+03
      0.000000E+00      0.000000E+00      0.162500E+03
      0.000000E+00      0.000000E+00      0.160000E+03
      0.000000E+00      0.000000E+00      0.157500E+03
      0.000000E+00      0.000000E+00      0.155000E+03
      0.000000E+00      0.000000E+00      0.152500E+03
      0.000000E+00      0.000000E+00      0.150000E+03
      0.000000E+00      0.000000E+00      0.147500E+03
      0.000000E+00      0.000000E+00      0.145000E+03
      0.000000E+00      0.000000E+00      0.142500E+03
      0.000000E+00      0.000000E+00      0.140000E+03
      0.000000E+00      0.000000E+00      0.137500E+03
      0.000000E+00      0.000000E+00      0.135000E+03
      0.000000E+00      0.000000E+00      0.132500E+03
      0.000000E+00      0.000000E+00      0.130000E+03
      0.000000E+00      0.000000E+00      0.127500E+03
      0.000000E+00      0.000000E+00      0.125000E+03
      0.000000E+00      0.000000E+00      0.122500E+03
      0.000000E+00      0.000000E+00      0.120000E+03
      0.000000E+00      0.000000E+00      0.117500E+03
      0.000000E+00      0.000000E+00      0.115000E+03
      0.000000E+00      0.000000E+00      0.112500E+03
      0.000000E+00      0.000000E+00      0.110000E+03
      0.000000E+00      0.000000E+00      0.107500E+03
      0.000000E+00      0.000000E+00      0.105000E+03
      0.000000E+00      0.000000E+00      0.102500E+03
      0.000000E+00      0.000000E+00      0.100000E+03
      0.000000E+00      0.000000E+00      0.975000E+02
      0.000000E+00      0.000000E+00      0.950000E+02
      0.000000E+00      0.000000E+00      0.925000E+02
      0.000000E+00      0.000000E+00      0.900000E+02
      0.000000E+00      0.000000E+00      0.875000E+02
      0.000000E+00      0.000000E+00      0.850000E+02
      0.000000E+00      0.000000E+00      0.825000E+02
      0.000000E+00      0.000000E+00      0.800000E+02
      0.000000E+00      0.000000E+00      0.775000E+02
      0.000000E+00      0.000000E+00      0.750000E+02
      0.000000E+00      0.000000E+00      0.725000E+02
      0.000000E+00      0.000000E+00      0.700000E+02
      0.000000E+00      0.000000E+00      0.675000E+02
      0.000000E+00      0.000000E+00      0.650000E+02
      0.000000E+00      0.000000E+00      0.625000E+02
      0.000000E+00      0.000000E+00      0.600000E+02
      0.000000E+00      0.000000E+00      0.575000E+02
      0.000000E+00      0.000000E+00      0.550000E+02
      0.000000E+00      0.000000E+00      0.525000E+02
      0.000000E+00      0.000000E+00      0.500000E+02
      0.000000E+00      0.000000E+00      0.475000E+02
      0.000000E+00      0.000000E+00      0.450000E+02
      0.000000E+00      0.000000E+00      0.425000E+02
      0.000000E+00      0.000000E+00      0.400000E+02
      0.000000E+00      0.000000E+00      0.375000E+02
      0.000000E+00      0.000000E+00      0.350000E+02
      0.000000E+00      0.000000E+00      0.325000E+02
      0.000000E+00      0.000000E+00      0.300000E+02
      0.000000E+00      0.000000E+00      0.275000E+02
      0.000000E+00      0.000000E+00      0.250000E+02
      0.000000E+00      0.000000E+00      0.225000E+02
      0.000000E+00      0.000000E+00      0.200000E+02
      0.000000E+00      0.000000E+00      0.175000E+02
      0.000000E+00      0.000000E+00      0.150000E+02
      0.000000E+00      0.000000E+00      0.125000E+02
      0.000000E+00      0.000000E+00      0.100000E+02
      0.000000E+00      0.000000E+00      0.750000E+01
      0.000000E+00      0.000000E+00      0.500000E+01
      0.000000E+00      0.000000E+00      0.250000E+01
      0.200000E+03      0.000000E+00      0.000000E+00
      0.250000E+01      0.000000E+00      0.000000E+00
      0.500000E+01      0.000000E+00      0.000000E+00
      0.750000E+01      0.000000E+00      0.000000E+00
      0.100000E+02      0.000000E+00      0.000000E+00
      0.125000E+02      0.000000E+00      0.000000E+00
      0.150000E+02      0.000000E+00      0.000000E+00
      0.175000E+02      0.000000E+00      0.000000E+00
      0.200000E+02      0.000000E+00      0.000000E+00
      0.225000E+02      0.000000E+00      0.000000E+00
      0.250000E+02      0.000000E+00      0.000000E+00
      0.275000E+02      0.000000E+00      0.000000E+00
      0.300000E+02      0.000000E+00      0.000000E+00
      0.325000E+02      0.000000E+00      0.000000E+00
      0.350000E+02      0.000000E+00      0.000000E+00
      0.375000E+02      0.000000E+00      0.000000E+00
      0.400000E+02      0.000000E+00      0.000000E+00
      0.425000E+02      0.000000E+00      0.000000E+00
      0.450000E+02      0.000000E+00      0.000000E+00
[...]
CELL_DATA        14782
SCALARS model_vp float
LOOKUP_TABLE default
   1099.8806887816991     
   1100.2056120815139     
   1100.2100803530375     
   1099.8831968866061     
   1099.8881672626462     
   1100.1330638621514     
   1099.9219824670377     
   1100.0364868965898     
   1099.9831222120454     
   1099.9266315283555     
   1099.9448756522665     
   1099.9570160638627     
   1099.9443627221885     
   1099.9311520881663     
   1099.9185122726606     
   1100.1095932726321     
   1100.0809636326687     
   1100.0012336929597     
   1099.8968005408349     
   1099.8501076798429     
   1099.9006569045537     
   1099.8793596803866     
   1099.9133583413500     
   1099.8844188267969     
   1099.8644470471822     
   1099.8529605289150     
   1099.8794815716806     
   1099.8808774770673     
   1099.8609505291640     
   1099.8457084551815     
   1099.8470116053215     
   1099.8731544897978     
   1099.9812727333806     
   1100.0362810953370     
   1100.3327077971842     
   1100.0783658134901     
   1100.3470597987746     
   1100.3790462263412     
   1100.3702121083465     
   1100.2049232200930     
   1099.9595860125198     
   1099.9984546646845     
   1100.0555903240402     
   1100.1154497462514     
   1099.8722036898544     
   1099.8466595598752     
   1099.8473352456274     
   1099.8821803779631     
   1099.8630125327090     
   1099.9037925596926     
   1100.5826918945581     
   1099.9239758427232     
   1099.8861036739581     
   1099.9884801955031     
   1099.8674775332727     
   1100.0463011712609     
   1099.8523973124156     
   1100.0827703923464     
   1099.8518947649898     
   1100.0953895989658     
   1099.8782506546036     
   1099.9326338988622     
   1099.9301206163029     
   1100.1669499920326     
   1100.0621536233896     
   1100.2366154161971     
   1100.0974393769895     
   1100.3117840874390     
   1100.1019633535702     
   1100.0848667112994     
   1099.6707215210267     
   1099.5332646174870     
   1100.2806234265713     
   1100.3371300490414     
   1100.0626992483567     
   1100.0029586839676     
   1099.8753872503730     
   1099.9211008511309     
   1100.1221143393461     
   1100.0495775998936     
   1099.9052956015016     
   1099.8675589433553     
   1099.9587099050177     
   1099.8712548285012     
   1099.9680618884959     
   1099.8754020320082     
   1100.1672645941239     
   1100.1614171850692     
   1100.1569775441362     
   1099.9928472538350     
   1100.0834629159428     
   1100.1649691831103     
   1099.1069109097568     
   1099.9468549861749     
   1099.9620863661114     
   1100.1552273924740     
   1100.0813662782361     
   1099.7824722242945     
   1100.1299221747431     
   1100.0061653472951     
   1099.9447426344720     
   1099.9027649998689     
   1099.8810325748634     
   1099.9043233114319     
   1099.9525959310386     
   1099.0881309677497     
   1100.0358634214815     
   1100.0115478226087     
   1100.3262677905284     
   1100.2652859547600     
   1100.1211939227915     
   1100.2672528751766     
   1100.0489706714618     
   1100.1612092527230     
   1100.3275198807646     
   1099.9756006215803     
   1100.2649466139353     
   1100.0766452373296     
   1100.1693660335125     
   1100.2003634827263     
   1100.0711591557315     
   1100.3169989508135     
   1099.9909178836965     
   1100.3895825971047     
   1100.3920490499643     
   1099.8126971427837     
   1100.3258962290124     
   1099.7421562996999     
   1100.2190989633020     
   1099.6827001429376     
   1099.6615066084175     
   1100.0252194366710     
   1099.9705446908265     
   1099.8921240437016     
   1099.9270575156806     
   1099.8678362141088     
   1099.7775342384653     
   1099.6667182694255     
   1099.5713172094495     
   1099.7086801504252     
   1099.3747528152007     
   1100.1211088769462     
   1100.2155901080641     
   1100.2036188917793     
   1100.1116050860528     
   1100.5382726199839     
   1100.2957743701656     
   1100.4294598178501     
   1100.4796239276327     
   1100.4064133884458     
   1100.5886433740063     
   1100.4974548171308     
   1100.5064760911957     
   1100.2919061250095     
   1098.9902479515870     
   1100.1548394023687     
   1100.4405633064821     
   1100.0530623986715     
   1100.5488297236964     
   1100.0167730138212     
   1100.4650402555851     
   1100.0274785747167     
   1100.3157960771005     
   1099.9947874242353     
   1100.1546044450629     
   1100.2134410801289     
   1099.7148132046887     
   1099.5212917660169     
   1099.9905731660533     
   1100.0135922849781     
   1100.0666168083310     
   1100.0938540399150     
   1100.0456282136024     
   1099.9021271863273     
   1099.6881211014575     
   1099.4668679313295     
   1099.2176663224775     
   1099.8007125114480     
   1100.2477024450604     
   1100.2716349931025     
   1099.8626108648841     
   1099.9358304521056     
   1100.3035700833516     
   1100.4088022678534     
   1100.4865389671813     
   1100.0981179707878     
   1100.5876897266673     
   1100.5874839415410     
   1099.8885283079776     
   1100.4731155120555     
   1099.9878194937514     
   1100.0428675244675     
   1099.8572090443199     
   1099.7658020603703     
   1099.8004408182319     
   1099.9265322905278     
   1099.6768058110144     
   1099.8847452236546     
   1100.0283624887704     
   1100.1637485951489     
   1100.2471190905435     
   1100.2462166348639     
   1100.1454691049844     
   1099.9541002476171     
   1099.7652882609302     
   1099.4771841561567     
   1100.0759525800281     
   1099.6400376149979     
   1099.5400309351564     
   1099.6457244075868     
   1100.5524609803390     
   1099.3538097129567     
   1099.8919674954659     
   1099.6625704689300     
   1100.3669839077311     
   1099.9277956226235     
   1099.5416218998898     
   1100.1043606035093     
   1099.7837173448438     
   1099.8051910137149     
   1099.9258205988326     
   1099.5543902955828     
   1100.0445311841650     
   1099.4187090899768     
   1100.1400071887354     
   1099.4190445973827     
   1099.5241207090410     
   1100.2103633154688     
   1099.3090832375226     
   1099.9636265566080     
   1100.0485285414825     
   1098.8414518892687     
   1100.1568016361327     
   1100.2537776695681     
   1099.6046021129976     
   1099.6697710394687     
   1099.5257332666356     
   1098.9857797235481     
   1099.1937135671865     
   1099.1763226873904     
   1099.1986722811052     
   1099.3372111927049     
   1099.2731680933891     
   1100.8662978130055     
   1099.7120131327442     
   1099.1005690989384     
   1099.6643479245345     
   1099.2648455104079     
   1099.6316662303861     
   1099.4880434617794     
   1099.6674005937170     
   1099.7202065242461     
   1099.6332797629752     
   1099.3765121781971     
   1099.4435927000184     
   1100.4477204546388     
   1099.2870844279639     
   1098.9652142406803     
   1098.8141221528099     
   1099.7935257526019     
   1099.5903120683333     
   1099.8290736514989     
   1099.7389299825509     
   1099.2080076439215     
   1099.5557355278288     
   1099.4649190461405     
   1099.8829726326071     
   1098.9699045588475     
   1099.1653132816277     
   1099.2665366319000     
   1099.4778619636706     
   1099.0129717447612     
   1098.9760334076179     
   1099.9938589843239     
   1099.2213835582165     
   1099.9964079993229     
   1099.7872188240913     
   1099.4328494767472     
   1099.0654297207259     
   1098.8829382022500     
   1099.9928996164958     
   1101.9854360475817     
   1100.4628228732984     
   1099.6057872073475     
   1100.2330756397398     
   1100.1718672189950     
   1100.5260518996340     
   1100.7102750586337     
   1100.2106737610532     
   1100.3218025384610     
   1099.6151451489502     
   1099.9720538490124     
   1100.0090698834679     
   1099.2229718894487     
   1100.3180368583971     
   1098.9247444772529     
   1100.4218379720712     
   1100.2271733543166     
   1099.9373184098883     
   1099.6080029947568     
   1099.0361040770008     
   1098.9429439953640     
   1100.4681059639149     
   1100.0392501642143     
   1100.1770877505437     
   1100.2746650089166     
   1100.2374063777254     
   1101.0225796616344     
   1100.7075454343346     
   1100.6346550312392     
   1100.5735960780285     
   1100.4050624787967     
   1100.6169996766960     
   1100.8216035329335     
   1100.8264725646673     
   1099.8021550507553     
   1100.6876953139190     
   1099.5093554263831     
   1100.5231804007103     
   1100.4454892715498     
   1100.4791984135495     
   1100.5295898796405     
   1100.1615506375326     
   1101.5144230525952     
   1100.5979490885913     
   1100.7330152500531     
   1100.9876930893408     
   1100.4992032364307     
   1101.0309293699406     
   1101.0883060514909     
   1100.9311005919708     
   1100.9378787940027     
   1101.3248649328625     
   1100.6747025171499     
   1101.3136860715651     
   1100.7596145894447     
   1100.4954592419092     
   1100.8327948417548     
   1101.3747657486242     
   1101.8558761948561     
   1101.6290647784683     
   1100.9175286288628     
   1102.6716082055834     
   1102.2806885849627     
   1102.5112346651370     
   1101.8291789002612     
   1102.5718056675455     
   1102.8339228617949     
   1102.5164263476013     
   1101.7256160400375     
   1102.5970916193580     
   1102.5764106876998     
   1102.0748661799860     
   1102.0778422022411     
   1101.8898427503680     
   1102.3147115182348     
   1102.2567761364933     
   1101.7047593954348     
   1101.4035001068489     
   1101.0772032684249     
   1101.2733070633492     
   1100.4394620818541     
   1100.6473642848873     
   1099.9813194601713     
   1099.9427441442426     
   1099.9958779044202     
   1099.9999999476051     
   1099.9999999343804     
   1100.0000000000000     
   1099.9867255934757     
   1100.0895709154504     
   1100.0588739888622     
   1100.0327456460111     
   1099.9979943122901     
   1100.0767197169264     
   1099.9794075557470     
   1100.0392020121817     
   1100.0331173370660     
   1100.0218432950321     
   1100.0342578037528     
   1100.0337484285394     
   1100.0319256755688     
   1100.0486812288696     
   1100.0205187249048     
   1100.0596391055974     
   1100.0925998766941     
   1100.1035269467636     
   1100.0139712360108     
   1099.9983943791781     
   1099.9494657538669     
   1100.0206819556943     
   1099.9893611876018     
   1100.0943714129321     
   1099.9263088616485     
   1100.0046846255602     
   1100.0132728137103     
   1100.0209150078406     
   1100.0255743822579     
   1099.9855814678947     
   1099.9921609920150     
   1100.0015676721944     
   1100.0120481173933     
   1100.0217100645041     
   1099.9995850107264     
   1100.0305246555263     
   1100.0330492311305     
   1100.0289738780682     
   1100.0289260359364     
   1100.0284250120510     
   1099.9637254210090     
   1100.0280664273007     
   1100.0275233783987     
   1099.9831167321081     
   1099.9854826501810     
   1099.9927867553445     
   1100.0034936417280     
   1099.9932102707155     
   1099.9843366116602     
   1099.9784904589374     
   1099.9766939625968     
   1100.0951692547656     
   1100.0328031543552     
   1100.0537753276999     
   1100.0748229982994     
   1100.0705296531949     
   1100.0760489841375     
   1100.1059284351338     
   1100.0093755922794     
   1100.0098235422222     
   1100.0099786786075     
   1100.0120265935070     
   1100.0157086053823     
   1099.9788563603067     
   1099.9703819773961     
   1099.9526540087450     
   1099.9593682081793     
   1099.9657834012016     
   1099.9694934505653     
   1099.9705302807399     
   1100.0129490096374     
   1100.0097456854510     
   1100.0074357310789     
   1100.0045642234913     
   1099.9920230345786     
   1099.9660958107277     
   1099.9826466466097     
   1099.9734046843007     
   1099.9665358724733     
   1099.9951544503244     
   1099.9635608541048     
   1099.9924420304610     
   1099.9649802258714     
   1099.9880715903896     
   1099.9812090006860     
   1099.9791924988760     
   1099.9895650440444     
   1099.9724262663569     
   1100.0019965777076     
   1099.9638839632373     
   1100.0160518307130     
   1099.9581039128541     
   1100.0318845847305     
   1099.9567692851617     
   1100.0492884418813     
   1099.9603140222425     
   1100.0672114933702     
   1099.9679396832053     
   1100.0834151645277     
   1099.9781322774320     
   1099.8761320352510     
   1100.0966553760468     
   1100.0006066136668     
   1100.0114739904052     
   1100.0223244076494     
   1100.0339440081809     
   1099.8912164071694     
   1100.0466694601737     
   1099.9762349731827     
   1099.9704681287001     
   1099.9052107927696     
   1100.2911858825007     
   1100.1950325789721     
   1099.8959219032722     
   1099.9599642216158     
   1100.0080908516554     
   1099.9825280147022     
   1099.9685771067243     
   1099.9570047625537     
   1099.9692042766019     
   1099.9712160283916     
   1100.0233283984876     
   1099.9487517513569     
   1099.9499990270197     
   1099.9619162615229     
   1099.9636716847654     
   1099.9626254709319     
   1099.9582255168509     
   1099.9964249298926     
   1099.9528419478734     
   1100.0160334759710     
   1099.9498944566690     
   1100.0195778180357     
   1099.9520371283247     
   1100.0189845456541     
   1099.9725302028899     
   1099.9876299952284     
   1100.0027083819127     
   1100.0152293966582     
   1100.0231297282214     
   1100.0251680499357     
   1100.0210058833361     
   1100.0114923988087     
   1099.9987800873882     
   1099.9860072319741     
   1099.8779035680352     
   1099.8618892149714     
   1099.8912255167079     
   1099.8958414033334     
   1099.8518525993968     
   1099.8806123210845     
   1100.0540099805969     
   1100.0335006421524     
   1100.0392903851352     
   1100.0376864284651     
   1100.0302861216671     
   1100.0319713019089     
   1100.0151757161941     
   1099.9609838367157     
   1099.9670094716960     
   1099.9683342671269     
   1099.9667899153003     
   1100.0681128971025     
   1099.9771450248281     
   1099.9893008144975     
   1099.9739638156661     
   1100.0038080966922     
   1099.9789416159472     
   1100.0181887454710     
   1099.9798904040690     
   1100.0301150513005     
   1099.9804774371887     
   1099.9836861365532     
   1099.8816575675237     
   1099.9910033837216     
   1100.0194053073976     
   1100.0021970739215     
   1099.9973228913718     
   1100.0152703584101     
   1099.9695337777616     
   1100.0276336807849     
   1099.9401089926941     
   1100.0373262704056     
   1099.9142020794454     
   1100.0430502120680     
   1099.8963743362824     
   1100.0436447493928     
   1100.0378267701549     
   1100.0243539215344     
   1100.0024989411552     
   1099.9730152967643     
   1099.9389107755831     
   1099.8638660289346     
   1099.8443883051757     
   1100.0474925305286     
   1100.0035051948848     
   1100.0427973675542     
   1100.0477845996672     
   1100.0568944684583     
   1100.0659546638926     
   1099.9940120209617     
   1100.0067005663766     
   1100.0127351438155     
   1100.0177276230459     
   1100.0408582588816     
   1100.0471238309888     
   1099.9914239369114     
   1100.0493995580036     
   1100.0347327663731     
   1100.0391733370375     
   1100.0343553215412     
   1100.0463430491525     
   1100.0216419662797     
   1100.0530162669047     
   1099.9792158976873     
   1100.0560375003263     
   1099.9491122544407     
   1099.9150048391805     
   1100.0379651290020     
   1100.0264089329819     
   1099.8354588920713     
   1100.0126586400211     
   1099.9957728145637     
   1099.9747711347445     
   1099.9208946893609     
   1099.8918407176736     
   1099.8965994834791     
   1100.0063812988785     
   1099.9328068567563     
   1099.9505141404886     
   1099.9680246538796     
   1100.0423439650770     
   1100.0621048664239     
   1100.0609720334428     
   1100.0631243536607     
   1100.0614591072174     
   1100.0654943191985     
   1100.0727293302036     
   1100.0737482526340     
   1100.0417620889029     
   1100.0696765562996     
   1100.0231978434899     
   1100.0675279010411     
   1100.0039554839902     
   1100.0683660296947     
   1099.9855928890665     
   1100.0689807143585     
   1100.0649342833046     
   1100.0969632725910     
   1100.0536688477971     
   1099.9156303324339     
   1100.0357052382167     
   1099.9003095903822     
   1100.0138522217871     
   1099.8879150249143     
   1099.9915570243957     
   1099.8792961273305     
   1099.9711087312753     
   1099.9528388646020     
   1099.9359114950857     
   1099.9200047315494     
   1099.9059942195868     
   1099.9252211746684     
   1099.9539844911037     
   1099.9538575843610     
   1099.8888107701441     
   1099.8883286716168     
   1099.9185474038159     
   1099.9318421889727     
   1099.9210930004087     
   1099.9197352934136     
   1099.9277887633957     
   1099.9448104639794     
   1099.9662191804102     
   1100.0650147059464     
   1100.0742570669174     
   1100.0836532205919     
   1100.0594127084446     
   1100.0556447800022     
   1100.0490375271484     
   1100.0359158168010     
   1100.0715250084772     
   1100.0157155594511     
   1100.0581456273883     
   1099.9676926830066     
   1099.9477197741649     
   1100.0347091934943     
   1100.0214213669269     
   1099.9062967000191     
   1100.0011769314979     
   1099.8953618084242     
   1099.9773480305357     
   1099.9551672986561     
   1099.8993137199961     
   1099.9380764741411     
   1099.9192236940767     
   1099.9438176620449     
   1099.9177710991653     
   1099.9100646710763     
   1099.9022143016164     
   1099.8952046699242     
   1099.9045010776879     
   1099.9700842513262     
   1099.9636541304180     
   1099.9471842467829     
   1099.9454620063559     
   1099.8690800815716     
   1100.0084946728873     
   1100.0375728417362     
   1100.0201572976900     
   1099.9988738517552     
   1099.9855512442311     
   1100.0042650969431     
   1099.9899294222896     
   1099.9794682766201     
   1099.9284714610717     
   1099.9662422493757     
   1099.9369150795601     
   1099.9475288015344     
   1099.9428099392358     
   1099.9273080892431     
   1099.9126374533371     
   1099.9092286205407     
   1099.9519173403560     
   1099.9179704087335     
   1099.9847817345062     
   1099.9348624335087     
   1099.9817551944370     
   1099.9897999147379     
   1099.9969284497197     
   1100.1762372084950     
   1100.1463929014433     
   1100.1358743945596     
   1100.0740677800197     
   1100.0804014836488     
   1099.9142373478539     
   1099.9320220420152     
   1099.8948372980831     
   1099.8824318913923     
   1099.8853563319631     
   1099.9060847989645     
   1099.9401079207535     
   1099.9012506567171     
   1100.0160762262578     
   1100.0474845395750     
   1099.8731031826514     
   1100.0977135342521     
   1099.8973137670760     
   1100.1189072897437     
   1099.9375104328542     
   1099.9845135330334     
   1100.0296237085190     
   1100.0689369378881     
   1100.1034336253815     
   1100.1359342422754     
   1100.1673239121469     
   1100.2135071129505     
   1100.2984625694746     
   1100.2494038911168     
   1100.1171213622204     
   1100.1542481836150     
   1100.1984270248618     
   1100.1090134295418     
   1100.1379171895162     
   1100.2291620851820     
   1100.0943994725847     
   1100.1187673625948     
   1100.0641626888471     
   1100.0586886291669     