# vtk DataFile Version 3.1
Mesh with Data
ASCII
DATASET UNSTRUCTURED_GRID
POINTS         7552 float
      0.200000E+03      0.000000E+00      0.200000E+03
      0.000000E+00      0.000000E+00      0.200000E+03
      0.197500E+03      0.000000E+00      0.200000E+03
      0.195000E+03      0.000000E+00      0.200000E+03
      0.192500E+03      0.000000E+00      0.200000E+03
      0.190000E+03      0.000000E+00      0.200000E+03
      0.187500E+03      0.000000E+00      0.200000E+03
      0.185000E+03      0.000000E+00      0.200000E+03
      0.182500E+03      0.000000E+00      0.200000E+03
      0.180000E+03      0.000000E+00      0.200000E+03
      0.177500E+03      0.000000E+00      0.200000E+03
      0.175000E+03      0.000000E+00      0.200000E+03
      0.172500E+03      0.000000E+00      0.200000E+03
      0.170000E+03      0.000000E+00      0.200000E+03
      0.167500E+03      0.000000E+00      0.200000E+03
      0.165000E+03      0.000000E+00      0.200000E+03
      0.162500E+03      0.000000E+00      0.200000E+03
      0.160000E+03      0.000000E+00      0.200000E+03
      0.157500E+03      0.000000E+00      0.200000E+03
      0.155000E+03      0.000000E+00      0.200000E+03
      0.152500E+03      0.000000E+00      0.200000E+03
      0.150000E+03      0.000000E+00      0.200000E+03
      0.147500E+03      0.000000E+00      0.200000E+03
      0.145000E+03      0.000000E+00      0.200000E+03
      0.142500E+03      0.000000E+00      0.200000E+03
      0.140000E+03      0.000000E+00      0.200000E+03
      0.137500E+03      0.000000E+00      0.200000E+03
      0.135000E+03      0.000000E+00      0.200000E+03
      0.132500E+03      0.000000E+00      0.200000E+03
      0.130000E+03      0.000000E+00      0.200000E+03
      0.127500E+03      0.000000E+00      0.200000E+03
      0.125000E+03      0.000000E+00      0.200000E+03
      0.122500E+03      0.000000E+00      0.200000E+03
      0.120000E+03      0.000000E+00      0.200000E+03
      0.117500E+03      0.000000E+00      0.200000E+03
      0.115000E+03      0.000000E+00      0.200000E+03
      0.112500E+03      0.000000E+00      0.200000E+03
      0.110000E+03      0.000000E+00      0.200000E+03
      0.107500E+03      0.000000E+00      0.200000E+03
      0.105000E+03      0.000000E+00      0.200000E+03
      0.102500E+03      0.000000E+00      0.200000E+03
      0.100000E+03      0.000000E+00      0.200000E+03
      0.975000E+02      0.000000E+00      0.200000E+03
      0.950000E+02      0.000000E+00      0.200000E+03
      0.925000E+02      0.000000E+00      0.200000E+03
      0.900000E+02      0.000000E+00      0.200000E+03
      0.875000E+02      0.000000E+00      0.200000E+03
      0.850000E+02      0.000000E+00      0.200000E+03
      0.825000E+02      0.000000E+00      0.200000E+03
      0.800000E+02      0.000000E+00      0.200000E+03
      0.775000E+02      0.000000E+00      0.200000E+03
      0.750000E+02      0.000000E+00      0.200000E+03
      0.725000E+02      0.000000E+00      0.200000E+03
      0.700000E+02      0.000000E+00      0.200000E+03
      0.675000E+02      0.000000E+00      0.200000E+03
      0.650000E+02      0.000000E+00      0.200000E+03
      0.625000E+02      0.000000E+00      0.200000E+03
      0.600000E+02      0.000000E+00      0.200000E+03
      0.575000E+02      0.000000E+00      0.200000E+03
      0.550000E+02      0.000000E+00      0.200000E+03
      0.525000E+02      0.000000E+00      0.200000E+03
      0.500000E+02      0.000000E+00      0.200000E+03
      0.475000E+02      0.000000E+00      0.200000E+03
      0.450000E+02      0.000000E+00      0.200000E+03
      0.425000E+02      0.000000E+00      0.200000E+03
      0.400000E+02      0.000000E+00      0.200000E+03
      0.375000E+02      0.000000E+00      0.200000E+03
      0.350000E+02      0.000000E+00      0.200000E+03
      0.325000E+02      0.000000E+00      0.200000E+03
      0.300000E+02      0.000000E+00      0.200000E+03
      0.275000E+02      0.000000E+00      0.200000E+03
      0.250000E+02      0.000000E+00      0.200000E+03
      0.225000E+02      0.000000E+00      0.200000E+03
      0.200000E+02      0.000000E+00      0.200000E+03
      0.175000E+02      0.000000E+00      0.200000E+03
      0.150000E+02      0.000000E+00      0.200000E+03
      0.125000E+02      0.000000E+00      0.200000E+03
      0.100000E+02      0.000000E+00      0.200000E+03
      0.750000E+01      0.000000E+00      0.200000E+03
      0.500000E+01      0.000000E+00      0.200000E+03
      0.250000E+01      0.000000E+00      0.200000E+03
      0.000000E+00      0.000000E+00      0.000000E+00
      0.000000E+00      0.000000E+00      0.197500E+03
      0.000000E+00      0.000000E+00      0.195000E+03
      0.000000E+00      0.000000E+00      0.192500E+03
      0.000000E+00      0.000000E+00      0.190000E+03
      0.000000E+00      0.000000E+00      0.187500E+03
      0.000000E+00      0.000000E+00      0.185000E+03
      0.000000E+00      0.000000E+00      0.182500E+03
      0.000000E+00      0.000000E+00      0.180000E+03
      0.000000E+00      0.000000E+00      0.177500E+03
      0.000000E+00      0.000000E+00      0.175000E+03
      0.000000E+00      0.000000E+00      0.172500E+03
      0.000000E+00      0.000000E+00      0.170000E+03
      0.000000E+00      0.000000E+00      0.167500E+03
      0.000000E+00      0.000000E+00      0.165000E+03
      0.000000E+00      0.000000E+00      0.162500E+03
      0.000000E+00      0.000000E+00      0.160000E+03
      0.000000E+00      0.000000E+00      0.157500E+03
      0.000000E+00      0.000000E+00      0.155000E+03
      0.000000E+00      0.000000E+00      0.152500E+03
      0.000000E+00      0.000000E+00      0.150000E+03
      0.000000E+00      0.000000E+00      0.147500E+03
      0.000000E+00      0.000000E+00      0.145000E+03
      0.000000E+00      0.000000E+00      0.142500E+03
      0.000000E+00      0.000000E+00      0.140000E+03
      0.000000E+00      0.000000E+00      0.137500E+03
      0.000000E+00      0.000000E+00      0.135000E+03
      0.000000E+00      0.000000E+00      0.132500E+03
      0.000000E+00      0.000000E+00      0.130000E+03
      0.000000E+00      0.000000E+00      0.127500E+03
      0.000000E+00      0.000000E+00      0.125000E+03
      0.000000E+00      0.000000E+00      0.122500E+03
      0.000000E+00      0.000000E+00      0.120000E+03
      0.000000E+00      0.000000E+00      0.117500E+03
      0.000000E+00      0.000000E+00      0.115000E+03
      0.000000E+00      0.000000E+00      0.112500E+03
      0.000000E+00      0.000000E+00      0.110000E+03
      0.000000E+00      0.000000E+00      0.107500E+03
      0.000000E+00      0.000000E+00      0.105000E+03
      0.000000E+00      0.000000E+00      0.102500E+03
      0.000000E+00      0.000000E+00      0.100000E+03
      0.000000E+00      0.000000E+00      0.975000E+02
      0.000000E+00      0.000000E+00      0.950000E+02
      0.000000E+00      0.000000E+00      0.925000E+02
      0.000000E+00      0.000000E+00      0.900000E+02
      0.000000E+00      0.000000E+00      0.875000E+02
      0.000000E+00      0.000000E+00      0.850000E+02
      0.000000E+00      0.000000E+00      0.825000E+02
      0.000000E+00      0.000000E+00      0.800000E+02
      0.000000E+00      0.000000E+00      0.775000E+02
      0.000000E+00      0.000000E+00      0.750000E+02
      0.000000E+00      0.000000E+00      0.725000E+02
      0.000000E+00      0.000000E+00      0.700000E+02
      0.000000E+00      0.000000E+00      0.675000E+02
      0.000000E+00      0.000000E+00      0.650000E+02
      0.000000E+00      0.000000E+00      0.625000E+02
      0.000000E+00      0.000000E+00      0.600000E+02
      0.000000E+00      0.000000E+00      0.575000E+02
      0.000000E+00      0.000000E+00      0.550000E+02
      0.000000E+00      0.000000E+00      0.525000E+02
      0.000000E+00      0.000000E+00      0.500000E+02
      0.000000E+00      0.000000E+00      0.475000E+02
      0.000000E+00      0.000000E+00      0.450000E+02
      0.000000E+00      0.000000E+00      0.425000E+02
      0.000000E+00      0.000000E+00      0.400000E+02
      0.000000E+00      0.000000E+00      0.375000E+02
      0.000000E+00      0.000000E+00      0.350000E+02
      0.000000E+00      0.000000E+00      0.325000E+02
      0.000000E+00      0.000000E+00      0.300000E+02
      0.000000E+00      0.000000E+00      0.275000E+02
      0.000000E+00      0.000000E+00      0.250000E+02
      0.000000E+00      0.000000E+00      0.225000E+02
      0.000000E+00      0.000000E+00      0.200000E+02
      0.000000E+00      0.000000E+00      0.175000E+02
      0.000000E+00      0.000000E+00      0.150000E+02
      0.000000E+00      0.000000E+00      0.125000E+02
      0.000000E+00      0.000000E+00      0.100000E+02
      0.000000E+00      0.000000E+00      0.750000E+01
      0.000000E+00      0.000000E+00      0.500000E+01
      0.000000E+00      0.000000E+00      0.250000E+01
      0.200000E+03      0.000000E+00      0.000000E+00
      0.250000E+01      0.000000E+00      0.000000E+00
      0.500000E+01      0.000000E+00      0.000000E+00
      0.750000E+01      0.000000E+00      0.000000E+00
      0.100000E+02      0.000000E+00      0.000000E+00
      0.125000E+02      0.000000E+00      0.000000E+00
      0.150000E+02      0.000000E+00      0.000000E+00
      0.175000E+02      0.000000E+00      0.000000E+00
      0.200000E+02      0.000000E+00      0.000000E+00
      0.225000E+02      0.000000E+00      0.000000E+00
      0.250000E+02      0.000000E+00      0.000000E+00
      0.275000E+02      0.000000E+00      0.000000E+00
      0.300000E+02      0.000000E+00      0.000000E+00
      0.325000E+02      0.000000E+00      0.000000E+00
      0.350000E+02      0.000000E+00      0.000000E+00
      0.375000E+02      0.000000E+00      0.000000E+00
      0.400000E+02      0.000000E+00      0.000000E+00
      0.425000E+02      0.000000E+00      0.000000E+00
      0.450000E+02      0.000000E+00      0.000000E+00
[...]
CELL_DATA        14782
SCALARS model_vs float
LOOKUP_TABLE default
   649.90386818179138     
   649.89891865676759     
   649.71507402542932     
   650.30066843499867     
   649.59942582213614     
   649.86395243972072     
   650.19328276619785     
   650.54343963390647     
   650.50183653102567     
   650.40072657121550     
   650.00261870127304     
   650.17210305621336     
   650.24359378965812     
   650.08720945279401     
   649.91827244210447     
   649.98301058640118     
   649.73439223065600     
   649.95864855317234     
   649.74177027828694     
   649.82656497770063     
   649.84623050883533     
   649.60143818625772     
   650.08411654864699     
   649.68496679501811     
   649.68369229489349     
   650.03754643391051     
   650.24227565529281     
   649.54318942990767     
   649.51471164389750     
   649.64450741412202     
   649.85114703414376     
   650.04945314574741     
   650.27764445316609     
   650.31848920569087     
   649.76834181680817     
   650.33143034859222     
   649.80570653161351     
   649.70035207767467     
   649.79124863573816     
   649.34710275146472     
   649.28002591111874     
   649.02546783521484     
   648.89698521249341     
   648.95494336392437     
   649.89949241780346     
   649.71052442033863     
   649.48348193988249     
   649.35619530408724     
   649.33333820500513     
   650.34851483091609     
   649.64935987063916     
   649.97864605019504     
   649.34441514442472     
   649.93844251588530     
   649.35431557942093     
   649.81820254731531     
   649.53775465195565     
   649.68490234428702     
   649.79409318834018     
   649.60707002853349     
   649.99597103479800     
   650.05676504930113     
   649.62210931717516     
   649.93503690066234     
   649.74386684075250     
   649.92350229468877     
   649.49197242203013     
   649.86029362880720     
   649.29619431750189     
   649.23261192322354     
   650.78241274725383     
   650.77998173256799     
   649.89810591077264     
   649.90727507409667     
   650.09146881347328     
   649.93648062715010     
   649.66481912890515     
   650.51031434838035     
   649.94533225693601     
   650.25685051418350     
   650.51250265273711     
   649.83539503355667     
   650.62555436610739     
   650.12516047470888     
   650.40412640943475     
   650.02972101010459     
   650.13720281984718     
   649.55676130726499     
   649.19506611438942     
   650.56214617595003     
   650.41601492230484     
   650.10500689582614     
   650.12923644575267     
   649.55971245845717     
   649.78168352991054     
   649.08598706787916     
   648.98215143669961     
   650.05231394050952     
   650.32005480017244     
   649.04311131824170     
   649.23227067988307     
   649.48007347032080     
   649.71433519125605     
   650.08798442938541     
   650.35014818754894     
   651.72908531205928     
   650.55060134556084     
   650.48908606354655     
   649.72841998823901     
   650.26562915149191     
   650.18701157793646     
   650.09550634096490     
   650.64197906108052     
   650.51595262381693     
   649.97027127540298     
   650.56776641859767     
   649.59849959253188     
   650.54602760837577     
   649.57137259247156     
   650.42816919265385     
   649.59271684709063     
   650.21472027122468     
   649.61186100740042     
   649.97989014008976     
   649.82661511706010     
   649.78807087780729     
   649.80967892633464     
   649.99691333737292     
   649.89414957576639     
   650.26020482496438     
   650.57572402806886     
   649.98442667009897     
   649.87440781208329     
   651.54179854886479     
   649.72816492277354     
   649.68361157888603     
   649.83362982986216     
   650.13806911560187     
   650.47219496521461     
   649.51999006873746     
   650.64218540853130     
   650.05129172603085     
   650.25108008817131     
   650.46737596310038     
   650.55175174363444     
   649.68464640071340     
   650.11752594176255     
   649.85285678888863     
   649.68005542996980     
   649.95459374062352     
   649.57481393263777     
   649.79636246288885     
   649.73554359587615     
   649.90701242815908     
   648.88112648767731     
   650.40380818440565     
   649.81537430705600     
   650.56240363776567     
   649.62031993388962     
   650.18086285776542     
   649.72516135569822     
   649.77526149739651     
   649.99300159430209     
   649.51535316813965     
   650.31339109470991     
   651.52225407156357     
   649.99913651956922     
   650.44106415494309     
   650.60294991432295     
   650.42722818967275     
   650.06685917456468     
   649.68529321478127     
   649.51928970795939     
   649.71113508347537     
   650.14037696723892     
   650.47005704883236     
   650.01907908308533     
   651.14832101191178     
   650.59753955129656     
   649.74399368906575     
   650.17733380957452     
   650.04021784630413     
   649.70605675657134     
   650.10326352920208     
   649.57975823548622     
   649.88404000228127     
   649.75540243829766     
   649.71097910825426     
   650.32950134969508     
   649.68578413771388     
   650.48085937945507     
   649.82467701420433     
   649.86316343415365     
   649.90259032918277     
   650.09079453639197     
   650.01833446016576     
   650.10960238494522     
   650.36543419003897     
   650.76254811631634     
   651.05249632159246     
   651.04188749621073     
   650.69414173065149     
   650.21864974129630     
   649.92221845734309     
   651.97170056100856     
   650.04737506880554     
   649.76750594631869     
   650.21096847858678     
   650.05269705584749     
   650.11803815981534     
   650.12632012786526     
   650.22954236893474     
   650.19069579031066     
   650.15679213114129     
   650.25971203792528     
   648.94235542448939     
   650.02497381026240     
   650.28336438495239     
   650.64086716663701     
   650.37343957526411     
   651.22904415068660     
   650.40689611261007     
   651.76833930626879     
   650.36251547181666     
   651.94775956933631     
   650.36065118260592     
   650.50272607358511     
   649.69731101403556     
   651.91482711585195     
   651.81766130253357     
   651.71443812677603     
   648.94065781601012     
   651.05799698552539     
   650.06397560076141     
   650.51077444727184     
   651.64986744601970     
   651.48227114035979     
   648.97812827965527     
   650.34825661683305     
   649.13116246087645     
   650.58977163018290     
   651.02824323663424     
   649.79146565241149     
   651.67577736631154     
   651.41231933605411     
   649.87756161839457     
   650.93836256773591     
   650.69025374025796     
   650.26991277378465     
   651.39278928896340     
   651.81395032133935     
   651.64201859289824     
   650.93010266978331     
   649.44020249469850     
   649.32981068600111     
   650.49112013793876     
   650.92705152276380     
   651.24944464125110     
   651.05864231367718     
   649.45306571574918     
   650.17969179172144     
   650.77433306122600     
   650.50080687373304     
   649.03605824758802     
   648.94557881297601     
   649.77996972432334     
   650.89486838512153     
   648.68199767626925     
   648.62620488468997     
   649.33229654269132     
   648.96087896057509     
   648.64615639662986     
   648.58428400289961     
   649.79447197645334     
   649.22520371344365     
   649.89250215382367     
   649.79471715187299     
   649.52735565224793     
   649.15425507837995     
   649.24054403334935     
   649.97054724549912     
   647.81190807191297     
   648.38982282926713     
   648.99163424347012     
   647.82107533790634     
   650.21073016024911     
   650.79589004228887     
   650.59345243574671     
   648.65934928994614     
   648.13454970599753     
   649.43506201517232     
   648.11661692509074     
   649.50895895591452     
   650.01905571147086     
   649.21137395724952     
   650.73563503375590     
   647.50184624852272     
   647.21563627017565     
   647.90129792322489     
   649.36940946786899     
   651.85354202600286     
   651.99714917301628     
   650.35324155668025     
   650.41347377244654     
   648.39035559310912     
   647.16757166991181     
   649.84691468326105     
   652.18672392175426     
   649.55222138510237     
   650.74784930534202     
   648.18632089972743     
   647.18820457705317     
   650.98685021105348     
   651.44865004118799     
   650.92291736478455     
   652.13361409265144     
   649.70547006838888     
   652.60833283465649     
   648.32414531420341     
   647.34566993169176     
   647.34023069190130     
   648.56623215575576     
   651.91360803719670     
   648.33553792898738     
   648.66661779812387     
   650.45789373383263     
   651.82945705762654     
   649.70548112950928     
   651.92645364525674     
   652.36390225312755     
   647.83600950470952     
   651.87902194115406     
   647.64068752616913     
   651.06756668104049     
   649.42710039608448     
   649.93178219789536     
   649.76827906635208     
   649.11052138660011     
   648.31877691932993     
   647.74069388443399     
   648.32853037123471     
   648.59214166233562     
   647.49556411385322     
   649.55396856785001     
   646.31971040201313     
   646.31756983261755     
   649.84535137092087     
   647.16939753144686     
   645.87336829616686     
   645.98619997667163     
   647.89064464876128     
   649.97395042429446     
   653.06132097125396     
   647.33153338275031     
   652.86844959296127     
   650.71781526273287     
   649.67325417284871     
   649.28463569309167     
   654.30636264125769     
   653.18346954566914     
   654.69219124394328     
   652.76436647973492     
   654.39431166322424     
   650.19967064196862     
   649.85539208736100     
   650.00341823056658     
   649.99999969660405     
   649.99999955938529     
   650.00000000000000     
   649.56771508627037     
   649.93392091645444     
   649.94024699287718     
   650.16215019247807     
   650.02628678430938     
   649.95073793911911     
   649.54029369856585     
   649.90052254526995     
   649.77683461854281     
   649.44680012483366     
   650.01742037306121     
   650.10248354976670     
   650.18893182719580     
   650.60755072911650     
   649.83895661051019     
   649.78642338803604     
   649.87083563409351     
   649.85708201032401     
   649.68504313149208     
   649.61804108887600     
   650.02055495436832     
   649.78922096158760     
   649.83820240302589     
   649.81257398568539     
   650.34407716575834     
   649.76806512985888     
   649.68860761728979     
   649.76958855416694     
   649.86697397485932     
   649.59802209524912     
   649.60401048588551     
   649.62903266330034     
   649.67371901247293     
   649.73899477580505     
   649.78039815454031     
   650.18255429564874     
   649.91972843478038     
   649.82317593490905     
   650.18101166450742     
   650.13837977315984     
   649.68365797308161     
   650.06514859233471     
   649.97021828437403     
   649.61193744279376     
   649.64674821178880     
   649.70074351241988     
   649.62811306095944     
   649.58643830085202     
   649.55881036832034     
   649.54114979438793     
   649.53349232054154     
   649.90087298330923     
   649.75661958227340     
   649.81869942273943     
   649.85893907552975     
   649.82546737599148     
   649.84288193655868     
   649.82969718592426     
   649.97157792893790     
   649.91992239272599     
   649.86028385304326     
   649.82508865183263     
   649.84072245676396     
   649.67424073609573     
   649.71751033859755     
   649.91623121677492     
   649.85247762539404     
   649.82998159509748     
   649.85140565608015     
   649.90494274871890     
   650.10663931361250     
   650.02900209668121     
   649.93882566738853     
   649.85090641655438     
   649.73762996794005     
   649.59051806788898     
   649.72443709405491     
   649.73318783776313     
   649.74967275991651     
   649.94685820353470     
   649.75835578144233     
   649.87130169644809     
   649.74820895222012     
   649.81601148957532     
   649.79330479859004     
   650.08667272316768     
   649.63278720578273     
   649.80668120256121     
   649.60967764532506     
   649.84835293848994     
   649.61686676871886     
   649.90165567781446     
   649.65355012794794     
   649.94692948779687     
   649.70680647918016     
   649.96749365474716     
   649.75949891477933     
   649.95425601496936     
   649.79738196106643     
   649.90779835915180     
   650.27534753426107     
   649.80439788529065     
   649.76332803637308     
   649.70454714822108     
   649.67970377586607     
   649.69412218195589     
   650.25569000408893     
   649.73640793188747     
   649.93675199282961     
   650.00812590603152     
   650.05131768940589     
   649.91536131024532     
   649.86569519048487     
   650.38248387769215     
   650.09065995337323     
   650.22366426295730     
   650.28041242404424     
   650.24971376302312     
   650.18770584135632     
   649.63444313916602     
   649.97021739332854     
   649.82351198784409     
   650.00628258789902     
   650.10261214677121     
   649.90641046682299     
   649.83699040241413     
   649.79248131876489     
   649.79136865999124     
   650.27320565517061     
   649.83571290539976     
   650.13421953430998     
   649.91234728753284     
   650.02086748836962     
   650.00236525318223     
   649.91248335996170     
   650.17005510534443     
   650.23742161936320     
   650.28694400551296     
   650.30716879418105     
   650.28459290571277     
   650.21314451272360     
   650.10508965643032     
   649.99238358943410     
   649.91368288332148     
   649.89563582259302     
   650.05640442893321     
   650.12545432532795     
   650.17541566561704     
   649.98790663009959     
   650.11873781036581     
   650.17043833802484     
   649.97359811189654     
   650.19249692484289     
   650.10934025584743     
   649.98921272731423     
   649.56773808695414     
   649.84047643307338     
   649.58764779064791     
   649.74303570321661     
   649.63383317733053     
   649.56951888430467     
   649.56000756163314     
   650.95990581993362     
   649.67105448525660     
   649.69698586186951     
   649.54745185175250     
   649.72635271298464     
   649.46500990208096     
   649.78001238502918     
   649.44893097304418     
   649.87010872685676     
   649.48002456853283     
   649.52245631092148     
   649.89581179751531     
   649.54433577410953     
   650.20969065056136     
   649.53473258163592     
   650.15993800765739     
   649.50837562364745     
   650.07765951737827     
   649.49648581555857     
   650.01521758517163     
   649.53042034740145     
   650.01241059063034     
   649.62686281857032     
   650.07388063871008     
   649.77874426010976     
   649.95278072540816     
   650.09907136332549     
   650.17357877585152     
   650.16387368729272     
   650.10301288705284     
   650.21279417967082     
   650.14681749363206     
   649.80238706899559     
   649.77681372938196     
   649.37602132560858     
   649.42532490576480     
   650.87461297530251     
   650.93181156779076     
   649.45812811547478     
   649.40538596312444     
   649.45994920228964     
   649.72821341466022     
   649.77953000383138     
   649.66551928325271     
   650.36588207116642     
   649.53448911466296     
   650.00035380792428     
   650.16858341122759     
   649.41768358669174     
   650.24258216416411     
   649.56035042821179     
   650.21999519879307     
   650.00217112412975     
   650.12136292702144     
   650.16027119297371     
   650.20858127605618     
   649.63727011694778     
   649.51855432891386     
   650.11923126409044     
   649.49209176007548     
   649.58662932000186     
   649.78598561319063     
   650.19707427691412     
   650.34190001452316     
   650.37518342630449     
   650.02430750553617     
   649.80897485083449     
   649.84986275319545     
   650.02898835905899     
   650.39051476390557     
   650.78587243397226     
   649.85104246732146     
   650.19004296798960     
   650.52901736966749     
   650.92475118911761     
   649.97830361890396     
   650.34555784398765     
   650.79555260089978     
   650.69235512459034     
   650.67806142306870     
   650.93560037011684     
   650.50259695602006     
   651.04552838392397     
   650.27206358744411     
   651.04859084361442     
   651.00378626035672     
   649.73259135411456     
   650.96490327425033     
   649.92564083368711     
   650.95090382712726     
   650.13250128816674     
   650.94158463340659     
   650.30595893129566     
   650.89305200714580     
   650.35192233031000     
   650.76377170746059     
   650.54222727157935     
   650.26690185079087     
   650.02539811725785     
   649.91759918211574     
   649.92748632078951     
   650.10567446886296     
   649.60594408750001     
   649.96776799812017     
   650.14849068407091     
   650.81177230945423     
   650.78835134915505     
   649.51387931922625     
   649.42660618529362     
   649.36891339259057     
   649.34851300117680     
   649.39594920561569     
   650.85481175166194     
   650.72598719726511     
   650.45561175048965     
   650.82543225731047     
   650.67702734493673     
   650.48946658327134     
   650.34738373591961     
   650.64639455483689     
   650.30395417014370     
   650.70602268208484     
   650.50267701336941     
   650.66389755872262     
   650.13331574747758     
   649.92278326141025     
   650.68991165140983     
   649.81755633523562     
   650.43691943152305     
   649.83157739216915     
   649.94567774207906     
   649.98713750089132     
   650.12876122294756     
   650.15994725530777     
   650.32189365953252     
   650.53957003246398     
   650.64443459781569     
   650.59414763005009     
   650.10194500520265     
   649.91236228258765     
   649.71306531481866     
   649.90261216506701     
   650.27733914217356     
   650.22621772962123     
   650.05174250345578     
   650.06116964066860     
   650.44344034758763     
   650.30247850542605     
   649.78134290161836     
   649.54154315328412     
   650.24685776706508     
   650.04492453380908     
   649.80286268257623     
   649.64404902324509     
   649.59676262254698     
   649.82806113137701     
   649.48330070741804     
   650.04492321973066     
   649.46343447990034     
   649.49471809996851     
   649.52992065376100     
   650.14698909257720     
   649.54823758053226     
   649.72080942327830     
   649.56207741699109     
   649.88310191077949     
   650.05713759053617     
   650.12996050630647     
   650.18308875375260     
   649.80263656223747     
   649.93569299352464     
   649.75907586871767     
   650.51987433372710     
   649.78246520986022     
   649.84496853247913     
   649.83729851307578     
   649.96447294039149     
   650.09347389059110     
   650.16979593307281     
   650.16763687312834     
   649.83958438245395     
   649.95361204113578     
   649.82244019538325     
   650.23427621734982     
   649.79868195092354     
   650.38064061086732     
   649.89802144537725     
   650.45453401184398     
   650.43929685256876     
   650.33309190262150     
   650.15859095590281     
   649.97107167687523     
   649.84392848692107     
   649.82183789605892     
   649.85108059757647     
   649.83131406972848     
   649.92697904476336     
   650.42642544279317     
   650.27104134432523     
   650.08661040818174     
   650.32003308043261     
   650.27439115990762     
   650.05236913815963     
   649.62670697536919     
   649.86091848934643     
   649.32506600846796     
   649.52537610864988     