# vtk DataFile Version 3.1
Mesh with Data
ASCII
DATASET UNSTRUCTURED_GRID
POINTS         7552 float
      0.200000E+03      0.000000E+00      0.200000E+03
      0.000000E+00      0.000000E+00      0.200000E+03
      0.197500E+03      0.000000E+00      0.200000E+03
      0.195000E+03      0.000000E+00      0.200000E+03
      0.192500E+03      0.000000E+00      0.200000E+03
      0.190000E+03      0.000000E+00      0.200000E+03
      0.187500E+03      0.000000E+00      0.200000E+03
      0.185000E+03      0.000000E+00      0.200000E+03
      0.182500E+03      0.000000E+00      0.200000E+03
      0.180000E+03      0.000000E+00      0.200000E+03
      0.177500E+03      0.000000E+00      0.200000E+03
      0.175000E+03      0.000000E+00      0.200000E+03
      0.172500E+03      0.000000E+00      0.200000E+03
      0.170000E+03      0.000000E+00      0.200000E+03
      0.167500E+03      0.000000E+00      0.200000E+03
      0.165000E+03      0.000000E+00      0.200000E+03
      0.162500E+03      0.000000E+00      0.200000E+03
      0.160000E+03      0.000000E+00      0.200000E+03
      0.157500E+03      0.000000E+00      0.200000E+03
      0.155000E+03      0.000000E+00      0.200000E+03
      0.152500E+03      0.000000E+00      0.200000E+03
      0.150000E+03      0.000000E+00      0.200000E+03
      0.147500E+03      0.000000E+00      0.200000E+03
      0.145000E+03      0.000000E+00      0.200000E+03
      0.142500E+03      0.000000E+00      0.200000E+03
      0.140000E+03      0.000000E+00      0.200000E+03
      0.137500E+03      0.000000E+00      0.200000E+03
      0.135000E+03      0.000000E+00      0.200000E+03
      0.132500E+03      0.000000E+00      0.200000E+03
      0.130000E+03      0.000000E+00      0.200000E+03
      0.127500E+03      0.000000E+00      0.200000E+03
      0.125000E+03      0.000000E+00      0.200000E+03
      0.122500E+03      0.000000E+00      0.200000E+03
      0.120000E+03      0.000000E+00      0.200000E+03
      0.117500E+03      0.000000E+00      0.200000E+03
      0.115000E+03      0.000000E+00      0.200000E+03
      0.112500E+03      0.000000E+00      0.200000E+03
      0.110000E+03      0.000000E+00      0.200000E+03
      0.107500E+03      0.000000E+00      0.200000E+03
      0.105000E+03      0.000000E+00      0.200000E+03
      0.102500E+03      0.000000E+00      0.200000E+03
      0.100000E+03      0.000000E+00      0.200000E+03
      0.975000E+02      0.000000E+00      0.200000E+03
      0.950000E+02      0.000000E+00      0.200000E+03
      0.925000E+02      0.000000E+00      0.200000E+03
      0.900000E+02      0.000000E+00      0.200000E+03
      0.875000E+02      0.000000E+00      0.200000E+03
      0.850000E+02      0.000000E+00      0.200000E+03
      0.825000E+02      0.000000E+00      0.200000E+03
      0.800000E+02      0.000000E+00      0.200000E+03
      0.775000E+02      0.000000E+00      0.200000E+03
      0.750000E+02      0.000000E+00      0.200000E+03
      0.725000E+02      0.000000E+00      0.200000E+03
      0.700000E+02      0.000000E+00      0.200000E+03
      0.675000E+02      0.000000E+00      0.200000E+03
      0.650000E+02      0.000000E+00      0.200000E+03
      0.625000E+02      0.000000E+00      0.200000E+03
      0.600000E+02      0.000000E+00      0.200000E+03
      0.575000E+02      0.000000E+00      0.200000E+03
      0.550000E+02      0.000000E+00      0.200000E+03
      0.525000E+02      0.000000E+00      0.200000E+03
      0.500000E+02      0.000000E+00      0.200000E+03
      0.475000E+02      0.000000E+00      0.200000E+03
      0.450000E+02      0.000000E+00      0.200000E+03
      0.425000E+02      0.000000E+00      0.200000E+03
      0.400000E+02      0.000000E+00      0.200000E+03
      0.375000E+02      0.000000E+00      0.200000E+03
      0.350000E+02      0.000000E+00      0.200000E+03
      0.325000E+02      0.000000E+00      0.200000E+03
      0.300000E+02      0.000000E+00      0.200000E+03
      0.275000E+02      0.000000E+00      0.200000E+03
      0.250000E+02      0.000000E+00      0.200000E+03
      0.225000E+02      0.000000E+00      0.200000E+03
      0.200000E+02      0.000000E+00      0.200000E+03
      0.175000E+02      0.000000E+00      0.200000E+03
      0.150000E+02      0.000000E+00      0.200000E+03
      0.125000E+02      0.000000E+00      0.200000E+03
      0.100000E+02      0.000000E+00      0.200000E+03
      0.750000E+01      0.000000E+00      0.200000E+03
      0.500000E+01      0.000000E+00      0.200000E+03
      0.250000E+01      0.000000E+00      0.200000E+03
      0.000000E+00      0.000000E+00      0.000000E+00
      0.000000E+00      0.000000E+00      0.197500E+03
      0.000000E+00      0.000000E+00      0.195000E+03
      0.000000E+00      0.000000E+00      0.192500E+03
      0.000000E+00      0.000000E+00      0.190000E+03
      0.000000E+00      0.000000E+00      0.187500E+03
      0.000000E+00      0.000000E+00      0.185000E+03
      0.000000E+00      0.000000E+00      0.182500E+03
      0.000000E+00      0.000000E+00      0.180000E+03
      0.000000E+00      0.000000E+00      0.177500E+03
      0.000000E+00      0.000000E+00      0.175000E+03
      0.000000E+00      0.000000E+00      0.172500E+03
      0.000000E+00      0.000000E+00      0.170000E+03
      0.000000E+00      0.000000E+00      0.167500E+03
      0.000000E+00      0.000000E+00      0.165000E+03
      0.000000E+00      0.000000E+00      0.162500E+03
      0.000000E+00      0.000000E+00      0.160000E+03
      0.000000E+00      0.000000E+00      0.157500E+03
      0.000000E+00      0.000000E+00      0.155000E+03
      0.000000E+00      0.000000E+00      0.152500E+03
      0.000000E+00      0.000000E+00      0.150000E+03
      0.000000E+00      0.000000E+00      0.147500E+03
      0.000000E+00      0.000000E+00      0.145000E+03
      0.000000E+00      0.000000E+00      0.142500E+03
      0.000000E+00      0.000000E+00      0.140000E+03
      0.000000E+00      0.000000E+00      0.137500E+03
      0.000000E+00      0.000000E+00      0.135000E+03
      0.000000E+00      0.000000E+00      0.132500E+03
      0.000000E+00      0.000000E+00      0.130000E+03
      0.000000E+00      0.000000E+00      0.127500E+03
      0.000000E+00      0.000000E+00      0.125000E+03
      0.000000E+00      0.000000E+00      0.122500E+03
      0.000000E+00      0.000000E+00      0.120000E+03
      0.000000E+00      0.000000E+00      0.117500E+03
      0.000000E+00      0.000000E+00      0.115000E+03
      0.000000E+00      0.000000E+00      0.112500E+03
      0.000000E+00      0.000000E+00      0.110000E+03
      0.000000E+00      0.000000E+00      0.107500E+03
      0.000000E+00      0.000000E+00      0.105000E+03
      0.000000E+00      0.000000E+00      0.102500E+03
      0.000000E+00      0.000000E+00      0.100000E+03
      0.000000E+00      0.000000E+00      0.975000E+02
      0.000000E+00      0.000000E+00      0.950000E+02
      0.000000E+00      0.000000E+00      0.925000E+02
      0.000000E+00      0.000000E+00      0.900000E+02
      0.000000E+00      0.000000E+00      0.875000E+02
      0.000000E+00      0.000000E+00      0.850000E+02
      0.000000E+00      0.000000E+00      0.825000E+02
      0.000000E+00      0.000000E+00      0.800000E+02
      0.000000E+00      0.000000E+00      0.775000E+02
      0.000000E+00      0.000000E+00      0.750000E+02
      0.000000E+00      0.000000E+00      0.725000E+02
      0.000000E+00      0.000000E+00      0.700000E+02
      0.000000E+00      0.000000E+00      0.675000E+02
      0.000000E+00      0.000000E+00      0.650000E+02
      0.000000E+00      0.000000E+00      0.625000E+02
      0.000000E+00      0.000000E+00      0.600000E+02
      0.000000E+00      0.000000E+00      0.575000E+02
      0.000000E+00      0.000000E+00      0.550000E+02
      0.000000E+00      0.000000E+00      0.525000E+02
      0.000000E+00      0.000000E+00      0.500000E+02
      0.000000E+00      0.000000E+00      0.475000E+02
      0.000000E+00      0.000000E+00      0.450000E+02
      0.000000E+00      0.000000E+00      0.425000E+02
      0.000000E+00      0.000000E+00      0.400000E+02
      0.000000E+00      0.000000E+00      0.375000E+02
      0.000000E+00      0.000000E+00      0.350000E+02
      0.000000E+00      0.000000E+00      0.325000E+02
      0.000000E+00      0.000000E+00      0.300000E+02
      0.000000E+00      0.000000E+00      0.275000E+02
      0.000000E+00      0.000000E+00      0.250000E+02
      0.000000E+00      0.000000E+00      0.225000E+02
      0.000000E+00      0.000000E+00      0.200000E+02
      0.000000E+00      0.000000E+00      0.175000E+02
      0.000000E+00      0.000000E+00      0.150000E+02
      0.000000E+00      0.000000E+00      0.125000E+02
      0.000000E+00      0.000000E+00      0.100000E+02
      0.000000E+00      0.000000E+00      0.750000E+01
      0.000000E+00      0.000000E+00      0.500000E+01
      0.000000E+00      0.000000E+00      0.250000E+01
      0.200000E+03      0.000000E+00      0.000000E+00
      0.250000E+01      0.000000E+00      0.000000E+00
      0.500000E+01      0.000000E+00      0.000000E+00
      0.750000E+01      0.000000E+00      0.000000E+00
      0.100000E+02      0.000000E+00      0.000000E+00
      0.125000E+02      0.000000E+00      0.000000E+00
      0.150000E+02      0.000000E+00      0.000000E+00
      0.175000E+02      0.000000E+00      0.000000E+00
      0.200000E+02      0.000000E+00      0.000000E+00
      0.225000E+02      0.000000E+00      0.000000E+00
      0.250000E+02      0.000000E+00      0.000000E+00
      0.275000E+02      0.000000E+00      0.000000E+00
      0.300000E+02      0.000000E+00      0.000000E+00
      0.325000E+02      0.000000E+00      0.000000E+00
      0.350000E+02      0.000000E+00      0.000000E+00
      0.375000E+02      0.000000E+00      0.000000E+00
      0.400000E+02      0.000000E+00      0.000000E+00
      0.425000E+02      0.000000E+00      0.000000E+00
      0.450000E+02      0.000000E+00      0.000000E+00
[...]
CELL_DATA        14782
SCALARS model_vs float
LOOKUP_TABLE default
   650.15584193272025     
   649.86300764494376     
   649.65077613664369     
   650.26798807921853     
   649.41788721308126     
   649.98431327467347     
   650.23342176918243     
   650.46611057924281     
   650.47108797720716     
   650.43892501455014     
   649.91703790208817     
   649.99116405891732     
   650.09157244691494     
   650.03608773630174     
   650.00018746289504     
   649.95995971539560     
   649.99703538401809     
   649.77329078112143     
   649.92151480280086     
   650.13447059330997     
   650.00837999897715     
   649.67499133669435     
   650.10717662456113     
   649.96644502147387     
   650.01694200116322     
   650.26598654136239     
   650.37149914528004     
   649.83460506563108     
   649.85110337962521     
   649.94809635705883     
   650.06902498144268     
   650.16837081219580     
   650.27558620885964     
   650.30807221916348     
   649.82739667335750     
   650.32816064676922     
   649.73149853410439     
   649.73688513841148     
   649.66460659090831     
   649.38614342477410     
   649.58857897388759     
   649.30749702807123     
   649.13352456091320     
   649.11667971365330     
   649.87807043156511     
   649.80098458960401     
   649.67956729887089     
   649.58455380701901     
   649.58295116177953     
   650.19237844179247     
   649.55440043100953     
   649.88370917308600     
   649.51448260901373     
   649.83555217294929     
   649.53710479104404     
   649.77573995252271     
   649.66346478613411     
   649.74893124481127     
   649.81005702303332     
   649.78418439016639     
   649.89425037603064     
   649.87745195475611     
   649.47361115793285     
   650.00176459979332     
   649.62932251648135     
   649.85782722943657     
   649.50495207269012     
   649.71571639634033     
   649.45619752952848     
   649.51766726449637     
   650.61501207041374     
   650.75847144737384     
   649.75241299649201     
   649.75070497225227     
   650.08771271327612     
   650.10668497670076     
   649.54261381399317     
   650.38407056950837     
   649.75883895819970     
   650.00899699825197     
   650.55284727455785     
   649.87543238747764     
   650.60190879939444     
   650.07743594138174     
   650.16879003881820     
   650.05965531042887     
   650.13473981411778     
   649.48311448707989     
   649.24850101614095     
   650.36034291652209     
   650.19807484468663     
   649.94092352516316     
   650.15351894327819     
   649.87439773314304     
   650.05950411512379     
   649.19586856498734     
   649.11987813857820     
   650.08644099371827     
   650.13524249281272     
   649.18333238538310     
   649.38141803870838     
   649.66598299693976     
   649.95192024262235     
   650.25678776049870     
   650.32747755879859     
   651.25483962041824     
   650.55552046264256     
   650.42236831233754     
   649.79695216722610     
   650.17206694728657     
   650.16716438612889     
   649.99710646045423     
   650.54389277534551     
   650.38648431973274     
   649.95957508403080     
   650.59229355262039     
   649.69601188570789     
   650.49106260450719     
   649.63232110623949     
   650.32718391148910     
   649.57192172988914     
   650.13630162451034     
   649.50642637439103     
   649.97736046582270     
   649.90135511183234     
   649.75770281721054     
   649.91232412293868     
   650.07980671940084     
   649.95787920918337     
   650.39921522757447     
   650.63742308621102     
   649.86441060178902     
   649.68408448735454     
   651.27111390953769     
   649.51718344196843     
   649.50673249560828     
   649.73469787374495     
   650.13068175896467     
   650.51291975021115     
   649.46177254379165     
   650.54758619829215     
   650.02193907431456     
   650.33774982838042     
   650.62195499389225     
   650.71153787325773     
   649.62109409367281     
   650.19608134552345     
   649.94914262872408     
   649.52848964766724     
   649.84961036511709     
   649.59386260684505     
   649.75909612966666     
   649.78588513047168     
   649.79619965333825     
   649.47790765155673     
   650.42441281160450     
   649.68524422742553     
   650.52550432271232     
   649.65591490885424     
   650.11060267089385     
   649.82209243219836     
   649.69985776253679     
   650.08492642965325     
   649.40199436062801     
   650.35925680545631     
   651.55072615422807     
   649.77118879351883     
   650.24576057173761     
   650.60252387879223     
   650.45521666681111     
   650.12447974660529     
   649.72460018046968     
   649.46267434270919     
   649.51560527825791     
   649.86329620962351     
   650.25527358259251     
   649.50598318931839     
   650.93945440288780     
   650.85358268277571     
   649.85279361813537     
   650.21730268215254     
   650.08381502174359     
   649.82602146551153     
   650.10763461512067     
   649.68610801986290     
   649.96550969627754     
   649.65316179392039     
   649.71651969576283     
   650.40173420629833     
   649.78094144068189     
   650.60265940807324     
   649.89022201092996     
   649.88558008406653     
   649.91590189636747     
   650.07727873167642     
   649.89047758007052     
   649.99741220567535     
   650.42913330806459     
   650.84718557183214     
   651.14341245369110     
   651.12722594258844     
   650.76583896984891     
   650.27130105800506     
   649.97002266816503     
   651.91255655516488     
   649.75870862433624     
   649.95423872793162     
   650.11769805824008     
   649.90069172633412     
   649.96385559033035     
   650.06158894478381     
   650.00648876030516     
   650.11470926439415     
   650.01513694475500     
   650.19884831081026     
   649.44624813524661     
   649.90391517851629     
   650.21106258577402     
   650.53938586161337     
   650.21391874251697     
   651.08412289949069     
   650.16578518119445     
   651.58823446382621     
   650.10666385099057     
   651.81223453141990     
   650.14424886268409     
   650.32906131627863     
   650.11773003586836     
   651.81521465237188     
   651.53962630795490     
   651.56601844345380     
   648.82033132031165     
   651.17700043764239     
   650.46316610048245     
   650.20482016788185     
   651.41692528724684     
   651.30109352210866     
   649.41643117674232     
   650.11988585872086     
   649.80544664395370     
   650.40563904302553     
   650.86981010152897     
   649.71990132105805     
   651.21167683524970     
   651.12497006313777     
   649.83374230138986     
   650.61548244322103     
   650.73081665525126     
   650.06818741910922     
   651.35588730341669     
   651.65126176003969     
   651.37538751157581     
   650.62018420508741     
   649.21872112203926     
   649.19238499506025     
   650.50565664985459     
   650.84898556748362     
   650.75965017556382     
   650.81397837508746     
   649.98569010569872     
   649.83456720622826     
   650.49808083568678     
   650.77890490878872     
   649.78401398332505     
   649.66892149825026     
   650.33836859507517     
   650.85233318612745     
   649.45567744516461     
   649.52528009021194     
   649.07065037522898     
   649.77932988686939     
   648.50055339020935     
   648.43684415081339     
   649.95249360724733     
   648.91916735796894     
   649.72054072238825     
   649.44526371732957     
   649.19548547138834     
   648.95744636787856     
   649.00118700370251     
   649.99049912274995     
   647.91196730958814     
   648.16816199601124     
   648.76232501800405     
   647.61463594481393     
   649.84376003443685     
   650.07761724290299     
   649.73384947456884     
   648.87137193985700     
   648.09481405692009     
   649.84755511478670     
   647.84820129415061     
   649.69955036009856     
   649.87042159900557     
   649.14034611962313     
   650.60897952628818     
   647.26516043679976     
   647.04518401092855     
   647.81194675547977     
   649.31894911281074     
   651.68705271483532     
   651.68697302252724     
   651.30956669306329     
   650.51639984535984     
   648.78492974875155     
   647.63399904924631     
   649.44729033073452     
   651.26209322144302     
   648.88511824950422     
   651.00173365064109     
   647.94922696536014     
   647.40453876746926     
   650.17047605067239     
   650.40387947738668     
   650.04674069121700     
   651.97848692676428     
   649.33793506743734     
   652.39698429185808     
   648.57872730829206     
   648.05407857337866     
   648.11341530572861     
   649.01561464279484     
   651.72316712933900     
   648.50583740336526     
   649.99583107335138     
   649.95741048088121     
   650.90745102531048     
   650.64637505086012     
   651.17258116626829     
   651.51500303385114     
   649.08987504121285     
   651.42996564940540     
   648.40349034779058     
   651.31378073756900     
   649.32648659746224     
   650.06798191280370     
   651.19842600308357     
   650.60872449225542     
   649.46545935828624     
   648.30624137872383     
   648.39948446433721     
   649.07361294039583     
   647.90061660644312     
   650.22954891834945     
   646.63219676871688     
   646.84290989475130     
   650.39752375313026     
   647.59453595952164     
   646.24597001522193     
   646.55444245248736     
   647.93760301520820     
   650.25663908892363     
   653.20358183539111     
   647.27863949305436     
   652.87738332953938     
   650.71138980342005     
   649.27978310066453     
   648.89329688679277     
   653.67890380170104     
   653.21597398881192     
   653.48821142327608     
   652.94135796002661     
   653.80963053959863     
   650.26294035504361     
   650.02703993868010     
   650.00972802364549     
   649.99999979413087     
   649.99999970270824     
   650.00000000000000     
   649.68426256678151     
   649.94135142246205     
   649.95406962320783     
   650.07667126966885     
   649.99203990910655     
   649.95762105722883     
   649.66336543452599     
   649.92729147098930     
   649.86299042570670     
   649.62856573114277     
   649.97395479402803     
   650.03138528564887     
   650.10354969386344     
   650.33629014856433     
   649.88216034648610     
   649.86431066759030     
   649.90779930656242     
   649.89189963279046     
   649.77789381007665     
   649.72454099547792     
   650.05456752037719     
   649.81877231202213     
   649.88239225857092     
   649.87055325259928     
   650.27145793156035     
   649.82862150604456     
   649.77605852018326     
   649.82251556131007     
   649.87936745438651     
   649.70748397572697     
   649.71515605901857     
   649.73444193689011     
   649.76399685349043     
   649.80392551921909     
   649.85091694992832     
   650.10940925711020     
   649.91244538362150     
   649.85412310156005     
   650.09665159137046     
   650.05916287947514     
   649.79865572809592     
   650.00541240611506     
   649.94271515603577     
   649.71426321899958     
   649.73789028758881     
   649.77765739360564     
   649.74000513358237     
   649.71195136123322     
   649.68924889875143     
   649.67126232281328     
   649.66082109017339     
   649.91582058899803     
   649.83330494225243     
   649.87877289739015     
   649.90484903583729     
   649.88661501207912     
   649.89070788430877     
   649.86851343089768     
   649.98792166914905     
   649.95379958291767     
   649.91110191652479     
   649.88470634139026     
   649.89507464317660     
   649.76216642983547     
   649.79577192366116     
   649.99640169832003     
   649.95329932737059     
   649.92955603874202     
   649.92922098828615     
   649.94848557897615     
   650.04132155591469     
   649.98755451696616     
   649.93212380369937     
   649.88418012463535     
   649.83507507845638     
   649.72178559241229     
   649.83413602508108     
   649.84099720080087     
   649.84648690457084     
   649.94595778000723     
   649.84253909698896     
   649.90862647878760     
   649.82501667156191     
   649.88794800066478     
   649.88773605566405     
   649.96236077277479     
   649.73455769854786     
   649.90628126135891     
   649.72355600521678     
   649.93613764396559     
   649.73569949061346     
   649.96653676097856     
   649.76811489323234     
   649.98686213931956     
   649.80945863648992     
   649.98927342216155     
   649.84610062744127     
   649.97048764925421     
   649.86787398635681     
   649.93246095350696     
   650.24002343528571     
   649.85601673410054     
   649.83205675767533     
   649.79528261129030     
   649.78322605461392     
   649.79808463822121     
   650.22527995550126     
   649.83028144657669     
   649.96290732440445     
   650.01658854259574     
   650.04497998724787     
   649.78370435199429     
   649.95131549800465     
   650.23799820310410     
   650.07181893988002     
   650.16822896563542     
   650.20507499747771     
   650.18608245792564     
   650.15057271726937     
   649.73081014182310     
   649.97785258367628     
   649.84371594611537     
   650.04974332561960     
   650.10354335710861     
   649.95394216497596     
   649.92151729294937     
   649.90345673298998     
   649.90827200252227     
   650.20112353056038     
   649.93512904153783     
   650.10587568381641     
   649.97630328792241     
   650.02485165728581     
   650.02339620677310     
   649.94661885014261     
   650.12090373526598     
   650.16935619050787     
   650.21060715054114     
   650.23224730376955     
   650.22068882476106     
   650.16962726380291     
   650.08852020105451     
   650.00290629113692     
   649.94350105557908     
   649.93081917056611     
   650.05191601174806     
   650.11140320579034     
   650.13411981430875     
   649.96812341398299     
   650.10832843101525     
   650.14954649528590     
   649.98712658642000     
   650.17316575367556     
   650.11009917855642     
   650.01181627008907     
   649.71980360058114     
   649.84494955754246     
   649.71367183207656     
   649.84816475595869     
   649.77892174510384     
   649.73437889133629     
   649.71849242183566     
   650.70611931621170     
   649.73841568037915     
   649.74834316482429     
   649.70817378928575     
   649.77291457548836     
   649.65005199978066     
   649.82502754245525     
   649.62938297119229     
   649.90841129948319     
   649.63263462530438     
   649.63942286420559     
   650.13046602097120     
   649.63480719101096     
   650.18040695705565     
   649.61764357297022     
   650.13438493837396     
   649.60129016359713     
   650.06497461527931     
   649.60657263689643     
   650.01478020237016     
   649.65145113983351     
   650.01472048809376     
   649.74246122273235     
   650.06638215568228     
   649.86969687640578     
   650.00575159084929     
   650.11297042674528     
   650.16022588042108     
   650.14194266844208     
   650.08729625054991     
   650.18736115669265     
   650.13563974301837     
   649.87324210367319     
   649.87924038974870     
   649.56372460060663     
   649.58708963048025     
   650.68244406512758     
   650.70249809097868     
   649.62994147177312     
   649.59791700923165     
   649.63490481402755     
   649.79456037498892     
   649.80188196757820     
   649.73031737334202     
   650.29233155843099     
   649.65100365183559     
   650.00748575737532     
   650.11118871172107     
   649.60374339656289     
   650.15473370158668     
   649.71553399997606     
   650.14035473239664     
   650.04583800216733     
   650.08024172361627     
   650.15805880934045     
   650.18561038589075     
   649.75742406399399     
   649.67091555433967     
   650.11319992946665     
   649.65156181354530     
   649.72391784085244     
   649.87634495392388     
   650.18603565941396     
   650.28051217301299     
   650.31518987175070     
   650.04549461757904     
   649.84365034275231     
   649.87413512992089     
   650.02103760657815     
   650.15146171451920     
   650.58904077696866     
   649.94562842460891     
   650.19161218313570     
   650.42269944428926     
   650.67751854484641     
   650.04693585516554     
   650.31465698204704     
   650.64033682420586     
   650.54855736519198     
   650.55652245725923     
   650.69890337613765     
   650.41527141009010     
   650.75979125055312     
   650.22340228648090     
   650.76118139660184     
   650.74613338714812     
   649.99385870418234     
   650.74481706669860     
   649.94325964581947     
   650.75874624473647     
   650.11581859672515     
   650.76314416173318     
   650.26008938663085     
   650.72124391881925     
   650.29996371528682     
   650.60387038207477     
   650.40900897544577     
   650.17511605624225     
   649.97769620456177     
   649.89788930554801     
   649.87714577790734     
   650.04172774549943     
   649.60763263348304     
   649.89945548352648     
   650.03688172013665     
   650.61545614927229     
   650.61922008172337     
   649.56563049938234     
   649.50485182547231     
   649.46593641919139     
   649.44163524869214     
   649.44820622052907     
   650.60162264971291     
   650.55587924982774     
   650.39214138396164     
   650.53870941745777     
   650.41278383842564     
   650.28612820306671     
   650.21217657540058     
   650.47768939944262     
   650.21636948336595     
   650.46128550459707     
   650.41173420713585     
   650.53573192148292     
   649.96922649178055     
   649.84391418502980     
   650.49457486649874     
   649.80353119359143     
   650.27427008522216     
   649.84646738042193     
   649.95396999908928     
   649.93373644932001     
   650.10400717893970     
   650.09595884193595     
   650.24699806435649     
   650.41727024029342     
   650.48555992719696     
   650.42604191799933     
   650.00200871312779     
   649.85120114816573     
   649.72129479393334     
   649.88209632903977     
   650.22797428613273     
   650.18676692063241     
   650.26069301925384     
   649.84696481925801     
   650.21685290421033     
   650.05208569259230     
   649.65264449356550     
   649.51366958326673     
   650.00361215521264     
   649.83548933491909     
   649.68034008701568     
   649.67017449531636     
   649.57899593772015     
   649.83094927682407     
   649.54741200155172     
   650.02545600174028     
   649.56425959908495     
   649.58951343043361     
   649.59410789399453     
   650.10553152018122     
   649.57820838711734     
   649.71309295537219     
   649.56941751192494     
   649.89962242660567     
   650.07601163642153     
   650.14753260038071     
   650.10101312602058     
   649.92744626525757     
   650.04719293228834     
   649.72230912943053     
   650.41065402003710     
   649.91461613908211     
   649.88106807643680     
   650.00613891167939     
   650.10830969532515     
   650.17047795903864     
   650.16451871816139     
   650.08884993928393     
   650.03007966730127     
   649.82300256626058     
   649.72511209186382     
   650.36750558047083     
   649.82834079809163     
   650.41551883057275     
   649.97960786517604     
   650.39284671940948     
   650.30151720681886     
   650.15300135530811     
   649.97724559608048     
   649.82930143421265     
   649.77281756121545     
   649.83364802862650     
   649.98883019644779     
   649.79000944409381     
   649.81123188789104     
   650.29207169240954     
   650.11885794067098     
   649.93552247708340     
   650.31488388239916     
   650.24177378636352     
   649.92527118406451     
   649.88016783004912     
   650.05288075643432     
   649.67903616696481     
   649.87245162756255     