# vtk DataFile Version 3.1
Mesh with Data
ASCII
DATASET UNSTRUCTURED_GRID
POINTS         7552 float
      0.200000E+03      0.000000E+00      0.200000E+03
      0.000000E+00      0.000000E+00      0.200000E+03
      0.197500E+03      0.000000E+00      0.200000E+03
      0.195000E+03      0.000000E+00      0.200000E+03
      0.192500E+03      0.000000E+00      0.200000E+03
      0.190000E+03      0.000000E+00      0.200000E+03
      0.187500E+03      0.000000E+00      0.200000E+03
      0.185000E+03      0.000000E+00      0.200000E+03
      0.182500E+03      0.000000E+00      0.200000E+03
      0.180000E+03      0.000000E+00      0.200000E+03
      0.177500E+03      0.000000E+00      0.200000E+03
      0.175000E+03      0.000000E+00      0.200000E+03
      0.172500E+03      0.000000E+00      0.200000E+03
      0.170000E+03      0.000000E+00      0.200000E+03
      0.167500E+03      0.000000E+00      0.200000E+03
      0.165000E+03      0.000000E+00      0.200000E+03
      0.162500E+03      0.000000E+00      0.200000E+03
      0.160000E+03      0.000000E+00      0.200000E+03
      0.157500E+03      0.000000E+00      0.200000E+03
      0.155000E+03      0.000000E+00      0.200000E+03
      0.152500E+03      0.000000E+00      0.200000E+03
      0.150000E+03      0.000000E+00      0.200000E+03
      0.147500E+03      0.000000E+00      0.200000E+03
      0.145000E+03      0.000000E+00      0.200000E+03
      0.142500E+03      0.000000E+00      0.200000E+03
      0.140000E+03      0.000000E+00      0.200000E+03
      0.137500E+03      0.000000E+00      0.200000E+03
      0.135000E+03      0.000000E+00      0.200000E+03
      0.132500E+03      0.000000E+00      0.200000E+03
      0.130000E+03      0.000000E+00      0.200000E+03
      0.127500E+03      0.000000E+00      0.200000E+03
      0.125000E+03      0.000000E+00      0.200000E+03
      0.122500E+03      0.000000E+00      0.200000E+03
      0.120000E+03      0.000000E+00      0.200000E+03
      0.117500E+03      0.000000E+00      0.200000E+03
      0.115000E+03      0.000000E+00      0.200000E+03
      0.112500E+03      0.000000E+00      0.200000E+03
      0.110000E+03      0.000000E+00      0.200000E+03
      0.107500E+03      0.000000E+00      0.200000E+03
      0.105000E+03      0.000000E+00      0.200000E+03
      0.102500E+03      0.000000E+00      0.200000E+03
      0.100000E+03      0.000000E+00      0.200000E+03
      0.975000E+02      0.000000E+00      0.200000E+03
      0.950000E+02      0.000000E+00      0.200000E+03
      0.925000E+02      0.000000E+00      0.200000E+03
      0.900000E+02      0.000000E+00      0.200000E+03
      0.875000E+02      0.000000E+00      0.200000E+03
      0.850000E+02      0.000000E+00      0.200000E+03
      0.825000E+02      0.000000E+00      0.200000E+03
      0.800000E+02      0.000000E+00      0.200000E+03
      0.775000E+02      0.000000E+00      0.200000E+03
      0.750000E+02      0.000000E+00      0.200000E+03
      0.725000E+02      0.000000E+00      0.200000E+03
      0.700000E+02      0.000000E+00      0.200000E+03
      0.675000E+02      0.000000E+00      0.200000E+03
      0.650000E+02      0.000000E+00      0.200000E+03
      0.625000E+02      0.000000E+00      0.200000E+03
      0.600000E+02      0.000000E+00      0.200000E+03
      0.575000E+02      0.000000E+00      0.200000E+03
      0.550000E+02      0.000000E+00      0.200000E+03
      0.525000E+02      0.000000E+00      0.200000E+03
      0.500000E+02      0.000000E+00      0.200000E+03
      0.475000E+02      0.000000E+00      0.200000E+03
      0.450000E+02      0.000000E+00      0.200000E+03
      0.425000E+02      0.000000E+00      0.200000E+03
      0.400000E+02      0.000000E+00      0.200000E+03
      0.375000E+02      0.000000E+00      0.200000E+03
      0.350000E+02      0.000000E+00      0.200000E+03
      0.325000E+02      0.000000E+00      0.200000E+03
      0.300000E+02      0.000000E+00      0.200000E+03
      0.275000E+02      0.000000E+00      0.200000E+03
      0.250000E+02      0.000000E+00      0.200000E+03
      0.225000E+02      0.000000E+00      0.200000E+03
      0.200000E+02      0.000000E+00      0.200000E+03
      0.175000E+02      0.000000E+00      0.200000E+03
      0.150000E+02      0.000000E+00      0.200000E+03
      0.125000E+02      0.000000E+00      0.200000E+03
      0.100000E+02      0.000000E+00      0.200000E+03
      0.750000E+01      0.000000E+00      0.200000E+03
      0.500000E+01      0.000000E+00      0.200000E+03
      0.250000E+01      0.000000E+00      0.200000E+03
      0.000000E+00      0.000000E+00      0.000000E+00
      0.000000E+00      0.000000E+00      0.197500E+03
      0.000000E+00      0.000000E+00      0.195000E+03
      0.000000E+00      0.000000E+00      0.192500E+03
      0.000000E+00      0.000000E+00      0.190000E+03
      0.000000E+00      0.000000E+00      0.187500E+03
      0.000000E+00      0.000000E+00      0.185000E+03
      0.000000E+00      0.000000E+00      0.182500E+03
      0.000000E+00      0.000000E+00      0.180000E+03
      0.000000E+00      0.000000E+00      0.177500E+03
      0.000000E+00      0.000000E+00      0.175000E+03
      0.000000E+00      0.000000E+00      0.172500E+03
      0.000000E+00      0.000000E+00      0.170000E+03
      0.000000E+00      0.000000E+00      0.167500E+03
      0.000000E+00      0.000000E+00      0.165000E+03
      0.000000E+00      0.000000E+00      0.162500E+03
      0.000000E+00      0.000000E+00      0.160000E+03
      0.000000E+00      0.000000E+00      0.157500E+03
      0.000000E+00      0.000000E+00      0.155000E+03
      0.000000E+00      0.000000E+00      0.152500E+03
      0.000000E+00      0.000000E+00      0.150000E+03
      0.000000E+00      0.000000E+00      0.147500E+03
      0.000000E+00      0.000000E+00      0.145000E+03
      0.000000E+00      0.000000E+00      0.142500E+03
      0.000000E+00      0.000000E+00      0.140000E+03
      0.000000E+00      0.000000E+00      0.137500E+03
      0.000000E+00      0.000000E+00      0.135000E+03
      0.000000E+00      0.000000E+00      0.132500E+03
      0.000000E+00      0.000000E+00      0.130000E+03
      0.000000E+00      0.000000E+00      0.127500E+03
      0.000000E+00      0.000000E+00      0.125000E+03
      0.000000E+00      0.000000E+00      0.122500E+03
      0.000000E+00      0.000000E+00      0.120000E+03
      0.000000E+00      0.000000E+00      0.117500E+03
      0.000000E+00      0.000000E+00      0.115000E+03
      0.000000E+00      0.000000E+00      0.112500E+03
      0.000000E+00      0.000000E+00      0.110000E+03
      0.000000E+00      0.000000E+00      0.107500E+03
      0.000000E+00      0.000000E+00      0.105000E+03
      0.000000E+00      0.000000E+00      0.102500E+03
      0.000000E+00      0.000000E+00      0.100000E+03
      0.000000E+00      0.000000E+00      0.975000E+02
      0.000000E+00      0.000000E+00      0.950000E+02
      0.000000E+00      0.000000E+00      0.925000E+02
      0.000000E+00      0.000000E+00      0.900000E+02
      0.000000E+00      0.000000E+00      0.875000E+02
      0.000000E+00      0.000000E+00      0.850000E+02
      0.000000E+00      0.000000E+00      0.825000E+02
      0.000000E+00      0.000000E+00      0.800000E+02
      0.000000E+00      0.000000E+00      0.775000E+02
      0.000000E+00      0.000000E+00      0.750000E+02
      0.000000E+00      0.000000E+00      0.725000E+02
      0.000000E+00      0.000000E+00      0.700000E+02
      0.000000E+00      0.000000E+00      0.675000E+02
      0.000000E+00      0.000000E+00      0.650000E+02
      0.000000E+00      0.000000E+00      0.625000E+02
      0.000000E+00      0.000000E+00      0.600000E+02
      0.000000E+00      0.000000E+00      0.575000E+02
      0.000000E+00      0.000000E+00      0.550000E+02
      0.000000E+00      0.000000E+00      0.525000E+02
      0.000000E+00      0.000000E+00      0.500000E+02
      0.000000E+00      0.000000E+00      0.475000E+02
      0.000000E+00      0.000000E+00      0.450000E+02
      0.000000E+00      0.000000E+00      0.425000E+02
      0.000000E+00      0.000000E+00      0.400000E+02
      0.000000E+00      0.000000E+00      0.375000E+02
      0.000000E+00      0.000000E+00      0.350000E+02
      0.000000E+00      0.000000E+00      0.325000E+02
      0.000000E+00      0.000000E+00      0.300000E+02
      0.000000E+00      0.000000E+00      0.275000E+02
      0.000000E+00      0.000000E+00      0.250000E+02
      0.000000E+00      0.000000E+00      0.225000E+02
      0.000000E+00      0.000000E+00      0.200000E+02
      0.000000E+00      0.000000E+00      0.175000E+02
      0.000000E+00      0.000000E+00      0.150000E+02
      0.000000E+00      0.000000E+00      0.125000E+02
      0.000000E+00      0.000000E+00      0.100000E+02
      0.000000E+00      0.000000E+00      0.750000E+01
      0.000000E+00      0.000000E+00      0.500000E+01
      0.000000E+00      0.000000E+00      0.250000E+01
      0.200000E+03      0.000000E+00      0.000000E+00
      0.250000E+01      0.000000E+00      0.000000E+00
      0.500000E+01      0.000000E+00      0.000000E+00
      0.750000E+01      0.000000E+00      0.000000E+00
      0.100000E+02      0.000000E+00      0.000000E+00
      0.125000E+02      0.000000E+00      0.000000E+00
      0.150000E+02      0.000000E+00      0.000000E+00
      0.175000E+02      0.000000E+00      0.000000E+00
      0.200000E+02      0.000000E+00      0.000000E+00
      0.225000E+02      0.000000E+00      0.000000E+00
      0.250000E+02      0.000000E+00      0.000000E+00
      0.275000E+02      0.000000E+00      0.000000E+00
      0.300000E+02      0.000000E+00      0.000000E+00
      0.325000E+02      0.000000E+00      0.000000E+00
      0.350000E+02      0.000000E+00      0.000000E+00
      0.375000E+02      0.000000E+00      0.000000E+00
      0.400000E+02      0.000000E+00      0.000000E+00
      0.425000E+02      0.000000E+00      0.000000E+00
      0.450000E+02      0.000000E+00      0.000000E+00
[...]
CELL_DATA        14782
SCALARS cvp float
LOOKUP_TABLE default
  -1.2148189835948906E-002
   7.2094193210390262E-002
  -2.0748009108541576E-002
  0.10130759145447608     
  -9.2323981502655292E-002
   7.1524205315729894E-002
  -2.2249919290998947E-002
  -4.0572972481270037E-002
  -4.5191270542733135E-002
  -2.7863082314780796E-002
  -6.4583362177569062E-002
  -8.5390304026031344E-002
  -8.4339504435115786E-002
  -6.6081766190507457E-002
  -2.4855946609780445E-002
  0.10535039766714109     
   7.9897737461372825E-002
  -3.5618201050362744E-002
  -3.2479818383646879E-002
   6.5307751802526764E-002
  -2.8771708154263699E-002
   5.3335869218891184E-002
  -6.9454279817793702E-002
   2.1798172573426831E-002
   5.8133943132786983E-002
   4.3618867846380742E-002
   6.4484261540885155E-003
   2.0673657639078569E-002
   6.2097447673416885E-002
   7.3767831663864636E-002
   5.3705422685638299E-002
   1.5082625588834733E-002
  -4.2188819312137513E-002
  -3.8624061138290630E-002
  0.10766518198767189     
  -1.5566117321297365E-002
  0.11334308238376689     
  0.11384369624190074     
  0.10809042420822554     
   2.9512804805804135E-002
   7.7729608019633828E-002
  0.10091195950613055     
  0.10300514537305799     
   7.8659343894950107E-002
   3.2090019136013205E-002
   7.2480122108765005E-002
   8.7170766367760083E-002
   1.3225215910130199E-002
   6.4717504403387943E-002
   5.6374587921075400E-002
  -9.3634432302800941E-002
  -1.1335350077475034E-002
   6.7615272063488666E-003
  -3.6849727454075561E-002
   6.2979046073690259E-002
  -3.4866335813602579E-002
   9.1751910277144522E-002
  -9.3697872481847792E-003
   8.1046511742142807E-002
   2.6715933831571854E-002
   4.0398675535953416E-002
  -6.4167320539253205E-003
   4.1428276910622661E-002
   8.8245385136266716E-002
  -3.5027645861103338E-002
   8.9852390042004404E-002
  -7.8016838458568986E-003
   9.6931941204528416E-002
   3.1751367888497181E-002
   6.6842971580873017E-002
 -0.21088915761948548     
  -5.0519391044517963E-002
   8.4096319420645022E-002
  0.10256309273117167     
   3.1355926504262069E-002
   1.6756397738680970E-002
  -5.8260060117230408E-003
   6.4543714358669693E-002
  -4.1823470688259652E-002
  -3.6403713845313920E-002
  0.10837867680867194     
   9.5680372246163936E-002
   8.0487369905493711E-002
   9.5476985095550332E-002
   2.5975472753714257E-003
   9.4602403082378592E-002
   4.6523521055101325E-002
  -1.3155569973783112E-002
   3.4221303357656149E-002
   7.6478755717415848E-003
  -3.7494129133254540E-002
  -4.8099326403906108E-002
  -3.6623532485204634E-002
   4.6683140960905520E-002
   2.2769613788610889E-002
   7.9229439769497173E-002
  0.10837011128680314     
 -0.11561063433425579     
   6.0807328733867252E-002
  0.10802966839601549     
   8.1991627488269131E-002
   4.3096532942309668E-002
   7.2992444960901428E-003
  -8.7554053745228129E-003
   1.5680288737025119E-002
  -9.4593435091238756E-002
   4.7685945457122431E-002
   8.8492568939011786E-003
   9.8321000609906256E-003
  -6.1946985128390142E-002
   4.6049759863966755E-002
  -2.6393959753319065E-002
   2.0023865650139042E-002
  -3.7745083760554687E-002
  -4.1860094662796110E-002
   8.8112478557420923E-002
   6.7144781205329546E-002
   2.7926587535357681E-002
  0.10523309610035612     
  -3.5758340472294148E-002
  0.11084064377516023     
  -6.7917285752131795E-002
   8.5504784509078974E-002
  -5.3472996848155450E-002
  -3.0803051800445745E-003
  -4.3300371436194321E-002
   5.6398136419497813E-002
  -6.3019844880466275E-002
   9.7643511800355812E-002
  -6.1781156469813865E-002
  -4.0739439865436482E-002
   8.0449415119564147E-002
   3.5920686269631720E-002
 -0.13717434549515894     
  -1.1927530030270103E-002
  -5.0712724391270655E-002
  -7.4597682647028388E-002
  -8.2368495191056670E-002
  -7.4034608004743763E-002
  -8.1483318796093836E-003
  -8.8150722570185733E-002
  -5.8610777315811893E-002
  -8.4733657852064659E-002
 -0.12477882010362434     
 -0.15414417605463582     
  -8.2160204415591478E-002
   7.8786857744801209E-002
   3.3163755668261061E-002
  -6.8954005878489447E-002
  -7.4765672608935949E-002
  -6.1604130442123137E-002
  -7.3921044014435722E-002
  -2.8693559474761550E-002
  -1.8721484178817267E-002
  -6.5692177979739946E-003
   8.7438735896883002E-002
  -7.5042655750058307E-002
   5.8675831846242102E-002
  -4.0567635834038558E-002
  -4.0294739187304938E-002
   2.2333242277461810E-002
  -7.3710975293358724E-002
   7.0705628718880503E-002
  -8.8766681018595472E-002
   7.9962500662947605E-002
  -1.5102998275355922E-002
  -9.2648197148536920E-002
  -9.2685610571456731E-002
  -8.4753317447555029E-003
  -6.2819850773787295E-002
  -9.5854654155695371E-002
 -0.10333731554745780     
  -9.5424504154198758E-002
  -8.7246495527967538E-002
  -8.7689458001972545E-002
  -9.4576333993128703E-002
  -8.0724890835972146E-002
 -0.19317480122761146     
  -3.5481614208328627E-003
   5.6769463369121115E-002
  -3.1483958406968132E-002
   3.9439591486498754E-002
   6.0587187536214358E-002
  -2.7742490037916678E-002
   3.4486182441080260E-003
   7.5812926078470275E-002
  -9.6772536782743668E-002
  -7.1547761879829974E-002
 -0.10467481711477206     
  -6.2590405080447421E-003
 -0.15005728938250651     
   7.8520968786010087E-002
   4.4076127208352606E-002
  -3.1926122085334414E-002
   1.3715511262285630E-002
  -5.9764107926233948E-002
  -8.3648526909982562E-002
 -0.17213546230719662     
 -0.18227284079938977     
 -0.14970144183477380     
  -9.6766047837862024E-002
  -5.2088966568666503E-002
  -3.6632210462436560E-002
  -5.4713738334738402E-002
  -4.2809908397446146E-002
   2.8018847590442448E-002
  -1.1364669950750075E-002
 -0.18447347022361749     
  -1.1031809031992666E-002
   8.3518199554600006E-002
  -8.8910130921108235E-002
   9.3926407174422910E-002
   8.6127061103813865E-002
   6.4664066105543191E-002
  -3.9817252985156509E-002
 -0.12344768768832640     
 -0.10765893134728223     
   3.8333225995245010E-002
 -0.21332993838934533     
   8.7867320819910805E-002
 -0.18953817142886450     
   7.6305670412744359E-002
 -0.12994771743413272     
   5.6401787599732189E-003
  -6.2743708327304096E-002
  -9.2306574628727267E-002
 -0.17489885356463283     
  -2.9186166960893975E-002
  -4.3856495913614991E-002
  -6.9388388008609178E-002
  -1.5380370409842985E-002
   3.7068996587763997E-002
   7.8380978623302788E-003
  -4.8477847077022206E-003
  -7.7388653828569000E-004
 -0.16608485469883502     
 -0.18164614591199824     
   7.4942648357022620E-002
   3.8658952590309645E-002
  -9.5301473067166645E-002
  -5.4781877694549758E-002
 -0.14081907558857792     
   9.8910181068015052E-002
  0.20535812629159075     
 -0.11127291898227991     
   5.2837348746008539E-002
  -4.7766958382154681E-002
 -0.12269552946742657     
   1.9186090078765344E-002
 -0.16368763285992222     
 -0.14491069610149596     
  -8.3842614931220943E-002
  -1.5979262687624420E-002
   3.7600321666707646E-002
   2.0871858974946891E-002
  -7.9869500603771126E-002
   4.5225079752426373E-002
 -0.10709840179090412     
  -7.8467674324760567E-002
 -0.11114544605298214     
  0.12126339189729897     
   6.1736944511144705E-002
 -0.11456919145213385     
  -6.2280815508346909E-002
 -0.13074765386578444     
 -0.13986929106065898     
  -3.2779784675935869E-002
   7.2904679045692894E-003
  -8.4265093921920178E-002
  0.12194864576227563     
 -0.13474753676115420     
   7.4097002183848390E-002
   9.0394744790820852E-003
  -2.1263451416520023E-002
  -4.3985288934177767E-002
   9.0686287039113439E-002
  0.16914164086745315     
  0.17895767119157815     
  0.12338791222915002     
  -3.8764324144158521E-002
   1.0645415641348326E-004
  -4.8892780411671444E-002
   8.8168589540445985E-002
  0.23212092380222465     
  0.22159089645092286     
 -0.15156022847776862     
  -9.4708335178995129E-002
   3.6327817810572746E-002
  -3.3414819836240686E-002
  0.10208793155298772     
 -0.12763217071240118     
  0.27131431958618279     
 -0.13327813668410618     
  0.12735066925460034     
  -5.0718914156396726E-002
   7.4936160963192944E-003
  0.22193220614749265     
  0.29193771699656168     
  0.27083704027399869     
  0.17327760260766797     
  -6.0320730026038522E-002
 -0.10802132441636689     
  0.15681233926354463     
  -1.7665443786559022E-002
   9.7739878915776596E-002
  0.21737183996445042     
 -0.15746415337183542     
   8.8267310487387812E-002
  0.18348069220858476     
  0.23692807932173829     
  0.28125570322437710     
  0.29122825559807453     
 -0.11704966253830115     
   5.0115632141197117E-003
  0.15342627485334925     
  -8.8382766702201312E-002
  0.25932100330080332     
  -9.5461733148269778E-002
  0.27884471729148341     
  0.21278508892527503     
   9.9418287542013484E-002
  -1.0822284137180947E-002
  -9.0506989601647006E-002
 -0.10109725245334103     
   6.0666657358818904E-002
 -0.15369283907656525     
  -5.6386090430471505E-002
  0.17500673636389444     
  -8.4814601967338324E-002
   5.5494096342172977E-002
  -4.6942379287795100E-002
  0.17869029668410980     
 -0.10508917725681433     
  0.21802689915799445     
  -4.4701220428742805E-002
   4.7933339228157193E-002
   3.4804344267602337E-002
  -8.1340620241575498E-002
 -0.13890904002120186     
 -0.12219977282261563     
   5.2000324899790576E-002
  0.16460678012836616     
   5.4805520697636584E-002
  -8.3830340055558450E-002
  0.17903018417613986     
  0.27844762550049496     
   5.0633432586896149E-002
  0.19603309964108434     
  0.29278103297060903     
  0.35901476358453266     
  0.39251270425621126     
  0.35248684197444258     
  0.21677509233312586     
  0.37360304763579105     
  0.38518052952694393     
  0.44241204569596088     
  0.39495028693472556     
  0.31648309910245059     
  0.33071300706877083     
  0.47939398981526848     
  0.14087971333957081     
  0.27719311713856654     
  0.11199504201375240     
  -2.5670212979169516E-003
   1.8273793357258573E-002
  -1.9608345442246999E-003
  -1.6991360241878879E-008
  -6.6420352441921264E-009
  -0.0000000000000000     
  -1.2130497589692528E-002
  -2.0201628821412979E-002
  -2.5818386364745590E-002
  -5.4979453032724328E-002
  -4.7600723941336610E-002
  -2.4524361904716338E-002
  -1.2798717477240316E-002
  -2.5490437922531042E-002
   3.5010645697541767E-002
   7.2457276419107569E-002
  -4.8233725629322974E-002
  -5.5389848950029116E-002
  -4.6064438200241295E-002
  -7.8734036136170651E-002
  -2.4856778636905909E-002
   1.6751009378752811E-002
  -1.6358975799995665E-002
  -1.3070802837268150E-002
  -1.0865288155646061E-002
  -1.1125472804400335E-002
  -2.7796389940438530E-002
  -1.5558190436681257E-002
   2.7810568596952322E-002
  -1.9226597184702592E-003
  -3.2973776249290862E-002
  -2.4621057659956654E-002
  -8.1414020277041886E-003
  -1.8160111775092573E-002
  -3.1982052836843321E-002
  -2.0375167597633730E-002
  -1.6912975614745532E-002
  -1.4046775138205838E-002
  -1.3626604495639426E-002
  -1.7276752173143319E-002
  -1.7024328658649113E-004
  -3.0807608406231007E-002
  -3.6884084637403960E-002
  -2.5487850452238510E-002
  -4.8744268215852385E-002
  -5.6481311831121997E-002
   4.7889538330183265E-002
  -5.5268765864975436E-002
  -4.5904034031420175E-002
  -2.3055949965348366E-002
  -2.4404853116528985E-002
  -2.4685513336908885E-002
  -3.4700556585155022E-003
  -3.5356427668867111E-003
  -6.3858385164369770E-003
  -9.7946124851834640E-003
  -1.2134177566926901E-002
  -1.2162638425754995E-002
  -1.1950452848140759E-002
  -1.4115013476131219E-002
  -1.6160035477411926E-002
   8.2207648389523557E-003
   2.4910372778960462E-003
  -5.4600522595642312E-003
   1.1785630783866172E-002
   2.3585778450994445E-002
   3.5623895119657863E-002
   4.6031549871347811E-002
   5.3535066984224722E-002
   1.2620327732918699E-002
   9.5015038242288324E-003
   4.8442856533851025E-002
   5.1511634686456129E-002
   4.4830977203445727E-002
   2.7619096055137366E-002
   3.3850816677411912E-003
  -5.5564898044338937E-002
  -5.1100008262462221E-002
  -3.7469375715820007E-002
  -1.8632749655370123E-002
   1.3196788567009688E-002
   4.7247050552830884E-002
   1.9347669681946185E-002
   1.9100144570744354E-002
   1.5233493560927246E-002
  -3.2100191342856174E-002
   1.0986489171693497E-002
  -1.1019115028858332E-002
   8.7786712825839545E-003
   9.5995389935700573E-003
   2.4454516186903960E-002
  -4.9363219889865376E-002
   1.6719929642987054E-002
   3.1021261802192002E-002
   2.0101324673085931E-002
   3.0140928024091129E-002
   2.1302481180673093E-002
   2.5073742848919469E-002
   1.9522981145363168E-002
   1.9686209484942600E-002
   1.4820250615358348E-002
   1.6906065498891624E-002
   8.2811283949660117E-003
   1.7890628079194656E-002
   1.9154168237758493E-003
   2.2068682890265826E-002
  -2.9183920612581959E-002
  -1.2973128183139775E-003
   3.3155478150918211E-002
   3.6350843510728113E-002
   3.6245176236287112E-002
   3.2493391133626773E-002
  -2.0692255477148522E-002
   2.5554530468368433E-002
   3.4668121178346362E-002
   2.1886538112319644E-002
   2.9005773821546454E-002
  0.10667061742649019     
   7.5421131879634021E-002
  -6.7915607674943146E-002
   2.5353090974928518E-002
   4.6730120744558248E-002
   3.0406378878209888E-002
   2.5388727712621694E-002
   2.5301608239208340E-002
   3.0032289923444797E-002
  -2.1221673615190936E-002
  -6.6024961960224338E-003
   3.9754310329530321E-002
   3.0671661310798327E-002
   9.5234728513168866E-003
   3.5182420403173403E-002
   5.3338762925042527E-002
   5.9826802299928844E-002
   3.8340984956818459E-002
   5.5289434771279705E-002
   5.3508564410763390E-002
   4.4268500424027378E-002
   5.7302407636008607E-002
   3.2698315800281888E-002
   5.7378346040152059E-002
   2.4353742732052163E-002
   2.9183304647666178E-002
   3.7595496183568854E-002
   4.6793916674749449E-002
   5.4519541644271370E-002
   5.9472071382922022E-002
   6.1116447665821992E-002
   5.9341464005012563E-002
   5.4179598128178762E-002
   4.5772225697291349E-002
   2.4208658782106492E-002
   1.5627946446875176E-002
  -7.4350386893682438E-002
  -7.7834822397133574E-002
   4.9771776853938451E-003
   1.0004493029481358E-003
   3.3986430927305609E-003
   5.0623835433014033E-002
   4.8981743774143216E-002
   4.4311459666487377E-002
   6.0705385374035054E-002
  -1.4382981004353011E-002
   3.9482180934737016E-002
   4.5457441954542627E-002
   6.5091275066384416E-002
   7.1058024439792880E-002
   6.3381566842405423E-002
  -4.3306808229147335E-002
   1.8036018813980256E-002
   1.4298320083357925E-002
   6.8120848498304007E-002
   1.8262084719637757E-002
   7.3942104677946985E-002
   2.6896582504452690E-002
   6.4784631112823357E-002
   3.6519304006856199E-002
   4.5992841863459422E-002
   2.5705453417311196E-002
   4.6223282354407369E-002
   1.1152130594395685E-002
   5.0045848503187322E-002
   6.0036887509390194E-003
   4.8071513672819796E-002
   9.6817914643516599E-003
   4.5038145894583499E-002
   1.8605010055734759E-002
   4.0524175954713429E-002
   2.8404893791873116E-002
   3.3605124191490650E-002
   3.5783537483568925E-002
   2.3614981640773931E-002
   3.9312557908599124E-002
   3.9386779874778281E-002
   3.7464682209717479E-002
   3.5072034749907596E-002
   3.3082031241647825E-002
   3.1415141051546747E-002
  -1.2297689803134070E-002
  -4.7870832310328015E-003
   1.1840331884862360E-002
   9.2217033705513200E-004
   2.0272450021343751E-002
   1.8866298677102357E-002
  -9.8428358481725993E-003
  -2.7665127678856431E-002
   6.8281282600871879E-002
   7.4465686543802534E-002
   6.3155373441992374E-002
   1.3088798909626033E-002
  -1.0649337118501473E-002
  -4.7799774545422002E-005
   5.6000885664655043E-003
   1.1379184125998882E-002
   5.6638107351095306E-003
  -1.6671289091858867E-002
   1.6088159958832750E-002
  -2.5771327657978363E-002
   8.6353369182377918E-003
  -2.1759178768999896E-002
  -4.4152068920264428E-003
  -9.7123363599433618E-003
  -5.8569935088449735E-003
  -3.4885245076549960E-003
   1.2886089403682605E-002
   6.9479548649252487E-003
   5.6040480230773806E-003
  -3.3739959147059163E-003
  -1.4577953224798282E-002
  -2.3462472992982895E-002
  -2.6648838771820050E-002
  -6.4759246279187027E-002
  -4.9995357628763074E-002
  -5.8496214489632582E-003
  -5.9860090581528760E-002
  -4.8704703447323722E-002
  -3.3490235177484382E-002
  -7.5575856102737204E-002
  -3.5939690781775002E-002
   5.4268971145942993E-002
   2.6068488817647582E-002
  -8.3700919769854314E-003
  -4.7950626938516122E-002
   5.0839984119448414E-002
   2.2393458893032472E-002
   2.3268244437266578E-003
  -1.4056418196416275E-002
   4.6391659773238822E-003
  -4.4253263277154953E-002
  -2.8317264787391244E-003
  -5.8015435234474923E-002
  -1.6940211041188917E-002
  -5.3267795933611986E-002
  -3.5693109859504475E-002
   7.9714199302841210E-002
  -1.5027295674397940E-002
  -6.5328825534121726E-002
  -2.8184663480536679E-004
  -6.4317458279166156E-002
   3.4780571000847110E-003
  -5.6905619906261008E-002
  -3.8754377437303401E-003
  -4.4292101411141351E-002
  -1.8861302602363912E-002
  -3.6798679217123272E-002
  -5.3688179614167192E-002
  -6.6926517012146802E-002
  -7.5201899797600918E-002
  -7.5375190264801134E-002
  -7.2927815901124793E-002
  -4.9911613548048704E-002
  -8.1511913382661005E-002
  -7.8487591136978646E-002
  -5.2344127909459762E-002
  -3.5397647642775122E-002
  -2.7670695478709942E-002
  -5.4013627473507948E-003
   1.3147628906786616E-002
   1.8329350622339459E-002
   4.6949158553840518E-003
  -5.5711545216524119E-002
  -2.0563329842349820E-002
   1.8283978954522363E-002
  -7.3630950869655779E-002
  -6.9535088644775173E-002
  -4.8588953842658843E-002
  -2.2108577652154723E-002
  -2.0941044632404340E-002
  -1.6997253434428705E-003
  -5.8331544807873004E-002
  -7.8281156469026635E-004
  -1.6509647787297604E-002
  -5.3331474046698461E-002
  -2.3984064770309906E-002
  -6.4921029261817018E-002
  -5.4693392188759913E-004
  -7.3227058921525326E-002
   8.7195931291855940E-003
   2.7836978640057566E-003
  -8.1713720766499576E-002
  -1.3524613713289958E-002
  -7.7423611484797483E-002
  -6.7117396517324318E-002
  -4.9414831856661977E-002
  -5.9967873369866004E-002
  -6.5254700245339733E-002
  -7.0490487849671754E-002
  -7.3568915303220073E-002
  -4.3895462036254496E-002
  -3.6002179816186280E-002
  -3.3096669423901021E-002
  -4.0657685867888808E-002
   4.6647816949023799E-002
  -8.3184679141646969E-002
  -5.7046371462737624E-002
  -8.3035557511784236E-002
  -5.9657497298220480E-002
  -2.5084355712816198E-002
  -8.2248791400180238E-002
  -8.4955132046309570E-002
  -6.1647540100274206E-002
  -4.4707036102401183E-002
  -2.4796130216410757E-002
  -5.1638008881939639E-002
   8.4241761299381560E-003
  -4.8818862631446351E-002
   2.4753001177950734E-002
   2.0190784774867052E-002
   1.8485114428648617E-004
  -3.0968783077326676E-002
  -2.4525463419276920E-002
  -4.5873923806398868E-002
  -4.3328102999123638E-002
  -2.9848427711491626E-002
  -1.4846284351182647E-002
  -5.5595268013143529E-003
   7.5941651818920500E-002
   3.9856218725208205E-002
   5.0594483903342181E-002
   7.3723498211203178E-003
  -1.7734945634292624E-002
   1.6082894835510692E-002
  -2.4281030670483154E-002
   3.9053272544279594E-002
   3.7141076142101166E-002
   1.4823829571075446E-002
  -1.5478114592021504E-002
  -3.9989359718460432E-002
   1.9160442593716874E-002
  -4.1360864548726048E-002
  -1.9937099918138003E-002
   2.3870077597103932E-002
   3.2300181323847224E-002
  -9.1507229022862405E-003
   4.8031424892399227E-002
  -3.7065665371629891E-002
  -4.8991829550332752E-002
  -4.1711138703329473E-002
  -1.8903536654391900E-002
   1.1788003159689052E-002
   4.1917437698905644E-002
   6.4583953277636219E-002
   7.2604055844668808E-002
  0.10647394420527295     
   9.5835542598900772E-002
   1.4739373449077530E-002
   4.8032768187148377E-002
   7.6037338262455567E-002
   1.7192854830043486E-002
   4.9706408056890063E-002
   9.4518866450555586E-002
   5.9285169369873512E-002
   8.7436268823990193E-002
   8.6296317721782506E-002
   8.8383167265045637E-002