# vtk DataFile Version 3.1
Mesh with Data
ASCII
DATASET UNSTRUCTURED_GRID
POINTS         7552 float
      0.200000E+03      0.000000E+00      0.200000E+03
      0.000000E+00      0.000000E+00      0.200000E+03
      0.197500E+03      0.000000E+00      0.200000E+03
      0.195000E+03      0.000000E+00      0.200000E+03
      0.192500E+03      0.000000E+00      0.200000E+03
      0.190000E+03      0.000000E+00      0.200000E+03
      0.187500E+03      0.000000E+00      0.200000E+03
      0.185000E+03      0.000000E+00      0.200000E+03
      0.182500E+03      0.000000E+00      0.200000E+03
      0.180000E+03      0.000000E+00      0.200000E+03
      0.177500E+03      0.000000E+00      0.200000E+03
      0.175000E+03      0.000000E+00      0.200000E+03
      0.172500E+03      0.000000E+00      0.200000E+03
      0.170000E+03      0.000000E+00      0.200000E+03
      0.167500E+03      0.000000E+00      0.200000E+03
      0.165000E+03      0.000000E+00      0.200000E+03
      0.162500E+03      0.000000E+00      0.200000E+03
      0.160000E+03      0.000000E+00      0.200000E+03
      0.157500E+03      0.000000E+00      0.200000E+03
      0.155000E+03      0.000000E+00      0.200000E+03
      0.152500E+03      0.000000E+00      0.200000E+03
      0.150000E+03      0.000000E+00      0.200000E+03
      0.147500E+03      0.000000E+00      0.200000E+03
      0.145000E+03      0.000000E+00      0.200000E+03
      0.142500E+03      0.000000E+00      0.200000E+03
      0.140000E+03      0.000000E+00      0.200000E+03
      0.137500E+03      0.000000E+00      0.200000E+03
      0.135000E+03      0.000000E+00      0.200000E+03
      0.132500E+03      0.000000E+00      0.200000E+03
      0.130000E+03      0.000000E+00      0.200000E+03
      0.127500E+03      0.000000E+00      0.200000E+03
      0.125000E+03      0.000000E+00      0.200000E+03
      0.122500E+03      0.000000E+00      0.200000E+03
      0.120000E+03      0.000000E+00      0.200000E+03
      0.117500E+03      0.000000E+00      0.200000E+03
      0.115000E+03      0.000000E+00      0.200000E+03
      0.112500E+03      0.000000E+00      0.200000E+03
      0.110000E+03      0.000000E+00      0.200000E+03
      0.107500E+03      0.000000E+00      0.200000E+03
      0.105000E+03      0.000000E+00      0.200000E+03
      0.102500E+03      0.000000E+00      0.200000E+03
      0.100000E+03      0.000000E+00      0.200000E+03
      0.975000E+02      0.000000E+00      0.200000E+03
      0.950000E+02      0.000000E+00      0.200000E+03
      0.925000E+02      0.000000E+00      0.200000E+03
      0.900000E+02      0.000000E+00      0.200000E+03
      0.875000E+02      0.000000E+00      0.200000E+03
      0.850000E+02      0.000000E+00      0.200000E+03
      0.825000E+02      0.000000E+00      0.200000E+03
      0.800000E+02      0.000000E+00      0.200000E+03
      0.775000E+02      0.000000E+00      0.200000E+03
      0.750000E+02      0.000000E+00      0.200000E+03
      0.725000E+02      0.000000E+00      0.200000E+03
      0.700000E+02      0.000000E+00      0.200000E+03
      0.675000E+02      0.000000E+00      0.200000E+03
      0.650000E+02      0.000000E+00      0.200000E+03
      0.625000E+02      0.000000E+00      0.200000E+03
      0.600000E+02      0.000000E+00      0.200000E+03
      0.575000E+02      0.000000E+00      0.200000E+03
      0.550000E+02      0.000000E+00      0.200000E+03
      0.525000E+02      0.000000E+00      0.200000E+03
      0.500000E+02      0.000000E+00      0.200000E+03
      0.475000E+02      0.000000E+00      0.200000E+03
      0.450000E+02      0.000000E+00      0.200000E+03
      0.425000E+02      0.000000E+00      0.200000E+03
      0.400000E+02      0.000000E+00      0.200000E+03
      0.375000E+02      0.000000E+00      0.200000E+03
      0.350000E+02      0.000000E+00      0.200000E+03
      0.325000E+02      0.000000E+00      0.200000E+03
      0.300000E+02      0.000000E+00      0.200000E+03
      0.275000E+02      0.000000E+00      0.200000E+03
      0.250000E+02      0.000000E+00      0.200000E+03
      0.225000E+02      0.000000E+00      0.200000E+03
      0.200000E+02      0.000000E+00      0.200000E+03
      0.175000E+02      0.000000E+00      0.200000E+03
      0.150000E+02      0.000000E+00      0.200000E+03
      0.125000E+02      0.000000E+00      0.200000E+03
      0.100000E+02      0.000000E+00      0.200000E+03
      0.750000E+01      0.000000E+00      0.200000E+03
      0.500000E+01      0.000000E+00      0.200000E+03
      0.250000E+01      0.000000E+00      0.200000E+03
      0.000000E+00      0.000000E+00      0.000000E+00
      0.000000E+00      0.000000E+00      0.197500E+03
      0.000000E+00      0.000000E+00      0.195000E+03
      0.000000E+00      0.000000E+00      0.192500E+03
      0.000000E+00      0.000000E+00      0.190000E+03
      0.000000E+00      0.000000E+00      0.187500E+03
      0.000000E+00      0.000000E+00      0.185000E+03
      0.000000E+00      0.000000E+00      0.182500E+03
      0.000000E+00      0.000000E+00      0.180000E+03
      0.000000E+00      0.000000E+00      0.177500E+03
      0.000000E+00      0.000000E+00      0.175000E+03
      0.000000E+00      0.000000E+00      0.172500E+03
      0.000000E+00      0.000000E+00      0.170000E+03
      0.000000E+00      0.000000E+00      0.167500E+03
      0.000000E+00      0.000000E+00      0.165000E+03
      0.000000E+00      0.000000E+00      0.162500E+03
      0.000000E+00      0.000000E+00      0.160000E+03
      0.000000E+00      0.000000E+00      0.157500E+03
      0.000000E+00      0.000000E+00      0.155000E+03
      0.000000E+00      0.000000E+00      0.152500E+03
      0.000000E+00      0.000000E+00      0.150000E+03
      0.000000E+00      0.000000E+00      0.147500E+03
      0.000000E+00      0.000000E+00      0.145000E+03
      0.000000E+00      0.000000E+00      0.142500E+03
      0.000000E+00      0.000000E+00      0.140000E+03
      0.000000E+00      0.000000E+00      0.137500E+03
      0.000000E+00      0.000000E+00      0.135000E+03
      0.000000E+00      0.000000E+00      0.132500E+03
      0.000000E+00      0.000000E+00      0.130000E+03
      0.000000E+00      0.000000E+00      0.127500E+03
      0.000000E+00      0.000000E+00      0.125000E+03
      0.000000E+00      0.000000E+00      0.122500E+03
      0.000000E+00      0.000000E+00      0.120000E+03
      0.000000E+00      0.000000E+00      0.117500E+03
      0.000000E+00      0.000000E+00      0.115000E+03
      0.000000E+00      0.000000E+00      0.112500E+03
      0.000000E+00      0.000000E+00      0.110000E+03
      0.000000E+00      0.000000E+00      0.107500E+03
      0.000000E+00      0.000000E+00      0.105000E+03
      0.000000E+00      0.000000E+00      0.102500E+03
      0.000000E+00      0.000000E+00      0.100000E+03
      0.000000E+00      0.000000E+00      0.975000E+02
      0.000000E+00      0.000000E+00      0.950000E+02
      0.000000E+00      0.000000E+00      0.925000E+02
      0.000000E+00      0.000000E+00      0.900000E+02
      0.000000E+00      0.000000E+00      0.875000E+02
      0.000000E+00      0.000000E+00      0.850000E+02
      0.000000E+00      0.000000E+00      0.825000E+02
      0.000000E+00      0.000000E+00      0.800000E+02
      0.000000E+00      0.000000E+00      0.775000E+02
      0.000000E+00      0.000000E+00      0.750000E+02
      0.000000E+00      0.000000E+00      0.725000E+02
      0.000000E+00      0.000000E+00      0.700000E+02
      0.000000E+00      0.000000E+00      0.675000E+02
      0.000000E+00      0.000000E+00      0.650000E+02
      0.000000E+00      0.000000E+00      0.625000E+02
      0.000000E+00      0.000000E+00      0.600000E+02
      0.000000E+00      0.000000E+00      0.575000E+02
      0.000000E+00      0.000000E+00      0.550000E+02
      0.000000E+00      0.000000E+00      0.525000E+02
      0.000000E+00      0.000000E+00      0.500000E+02
      0.000000E+00      0.000000E+00      0.475000E+02
      0.000000E+00      0.000000E+00      0.450000E+02
      0.000000E+00      0.000000E+00      0.425000E+02
      0.000000E+00      0.000000E+00      0.400000E+02
      0.000000E+00      0.000000E+00      0.375000E+02
      0.000000E+00      0.000000E+00      0.350000E+02
      0.000000E+00      0.000000E+00      0.325000E+02
      0.000000E+00      0.000000E+00      0.300000E+02
      0.000000E+00      0.000000E+00      0.275000E+02
      0.000000E+00      0.000000E+00      0.250000E+02
      0.000000E+00      0.000000E+00      0.225000E+02
      0.000000E+00      0.000000E+00      0.200000E+02
      0.000000E+00      0.000000E+00      0.175000E+02
      0.000000E+00      0.000000E+00      0.150000E+02
      0.000000E+00      0.000000E+00      0.125000E+02
      0.000000E+00      0.000000E+00      0.100000E+02
      0.000000E+00      0.000000E+00      0.750000E+01
      0.000000E+00      0.000000E+00      0.500000E+01
      0.000000E+00      0.000000E+00      0.250000E+01
      0.200000E+03      0.000000E+00      0.000000E+00
      0.250000E+01      0.000000E+00      0.000000E+00
      0.500000E+01      0.000000E+00      0.000000E+00
      0.750000E+01      0.000000E+00      0.000000E+00
      0.100000E+02      0.000000E+00      0.000000E+00
      0.125000E+02      0.000000E+00      0.000000E+00
      0.150000E+02      0.000000E+00      0.000000E+00
      0.175000E+02      0.000000E+00      0.000000E+00
      0.200000E+02      0.000000E+00      0.000000E+00
      0.225000E+02      0.000000E+00      0.000000E+00
      0.250000E+02      0.000000E+00      0.000000E+00
      0.275000E+02      0.000000E+00      0.000000E+00
      0.300000E+02      0.000000E+00      0.000000E+00
      0.325000E+02      0.000000E+00      0.000000E+00
      0.350000E+02      0.000000E+00      0.000000E+00
      0.375000E+02      0.000000E+00      0.000000E+00
      0.400000E+02      0.000000E+00      0.000000E+00
      0.425000E+02      0.000000E+00      0.000000E+00
      0.450000E+02      0.000000E+00      0.000000E+00
[...]
CELL_DATA        14782
SCALARS cvs float
LOOKUP_TABLE default
  -6.0974009052928213E-002
  0.18409731607813803     
   2.2110460503431462E-002
   8.5858104837129662E-002
 -0.18052609069819078     
  0.17665825799640236     
   4.8667703455213818E-003
  0.17882674343833871     
  0.14752547246363237     
  0.10896218782063113     
   4.2792760466365709E-002
   8.0966441620892934E-002
  0.10748728134331216     
   6.7365772165786111E-002
   2.5354391439341581E-002
  0.27179622454628632     
   8.7837359751246208E-002
 -0.14710485358485084     
  -6.7049097830929327E-002
  -4.3704338396702277E-002
  -1.8879701470068601E-002
 -0.21562741785084141     
   5.7546664257488396E-002
  -7.1188182255970206E-002
  -7.7623166266515192E-002
   9.5143844046365195E-003
   6.3027174114632822E-002
 -0.13848044581932650     
 -0.15899506592859763     
 -0.13326193322011429     
  -8.4687655701827083E-002
  -3.5643736839330205E-002
   4.0505512480803474E-002
   7.9147847330465981E-002
  -6.1808996495951923E-002
  0.12396823197692139     
  -4.0924074254684306E-003
  -6.4185377203538299E-002
   1.6596247854319887E-002
  -9.2585632020210196E-002
 -0.28489121501628800     
 -0.37392028013436979     
 -0.39583546321872021     
 -0.35119576233465066     
 -0.14872693787870875     
 -0.19113861305523333     
 -0.24413632046745620     
 -0.24710522945563218     
 -0.27325723640363742     
   6.6399865088196702E-002
 -0.31819074867111485     
 -0.13543879681721188     
 -0.27291669881332198     
 -0.14872476183414290     
 -0.28744788695136836     
 -0.17107848161865546     
 -0.24268802343187540     
 -0.17901200926994937     
 -0.17405212438160622     
 -0.15165837640856786     
 -0.12241342281890925     
 -0.11289852358570023     
 -0.11802857393974002     
  0.19941332481470120     
 -0.20801825200249865     
  0.18995825447041043     
 -0.26874894795749810     
  0.11507004050130815     
 -0.29946338114496313     
 -0.27513931346967174     
  0.18104831948365557     
   6.3801174662448307E-002
  0.12209021330463149     
   3.6823401918879048E-002
  0.15993237120652037     
  0.10305712722082692     
 -0.23437054862186452     
  0.18344260078193569     
  -2.5161934495349036E-002
   6.1632800136786639E-002
  0.24570042516686441     
 -0.12831679595751522     
  0.32411956439342021     
  -1.9346650472994310E-002
   9.6357557716481468E-002
  -3.6136505584753287E-002
  0.27279619829656598     
 -0.14029986244313383     
 -0.25768290745032574     
  0.22549095887651699     
  0.20283868460446158     
  0.12757083416688531     
  -1.3218928587444251E-002
 -0.15029021992173627     
  -7.8884411313173697E-003
 -0.20027475573481582     
 -0.28640679544841713     
 -0.35574486476568501     
  0.16844952135998012     
 -0.33642792490975587     
 -0.33831737436731568     
 -0.28708485868887862     
 -0.18844850076307273     
   6.6655231535720949E-002
  0.16664788559867619     
  0.47749783557357928     
   6.9064025153877370E-002
  0.33960734197334880     
  0.19209706580967750     
  0.29363205957173677     
  0.11742639692072630     
   4.6928453341181585E-002
  0.35743042962791360     
  0.34221706842034927     
  0.23686585536010418     
  0.32562442184724222     
  0.16254085890236591     
  0.33107315877695703     
  0.13399915622000341     
  0.30162669139158665     
   8.4703286283729681E-002
  0.25211806339769005     
  -8.2666580508211629E-004
  0.20906131452085278     
  0.19604819621977676     
 -0.29793083462325487     
  0.21753108312760544     
 -0.26583253792088246     
  0.25419694102417717     
 -0.13536818081347596     
   4.9636304747887883E-002
  0.23516033555261903     
  0.12457554148204374     
   7.6624637165691623E-002
  -4.5089376952128862E-002
 -0.21659819920393864     
 -0.31278061643484567     
 -0.28262061581962661     
 -0.13599925738261454     
 -0.33366468742189037     
  -7.7091884610729494E-002
  0.23992508214332914     
  0.30901526750342484     
  0.27355566884195726     
  0.14205947814990044     
 -0.22271861216041691     
   6.7458065233593337E-002
  -2.5493191350859978E-002
 -0.34580194776585860     
  -1.8857188019517683E-002
 -0.30521505686752248     
  -6.6589323111216861E-002
  -7.2969571240195874E-002
 -0.11725352165436861     
 -0.63037303789992793     
  0.18200210314865931     
 -0.17827312377516441     
  0.28579247337866853     
 -0.23760176347623888     
  0.30623651095199389     
 -0.21015389083930935     
  0.17545138118535453     
 -0.14199749792128910     
  -1.3372992364759473E-002
  -4.4709497115557814E-002
  0.35136797414165871     
 -0.25139424367096086     
 -0.20371108759165588     
  0.18072407606360766     
  0.25663285385634155     
  0.25804314858406313     
  0.17156187681027377     
   3.0552600866282642E-002
  -9.8714644195903034E-002
 -0.15904264080806962     
 -0.13669712151738272     
  0.15638098965241237     
  0.12895462603744351     
  0.30693514220745260     
 -0.19046547591144999     
 -0.30991977518540670     
 -0.34567320008314995     
 -0.31648064497474526     
  0.30153413208210661     
 -0.30567843826060409     
 -0.33590431110055952     
 -0.23451664397361716     
 -0.17444361881699733     
 -0.20353453676633698     
 -0.16195528170362772     
  -3.7402488896003949E-002
 -0.25540325877752257     
 -0.33553521140267273     
 -0.38458322925335653     
 -0.27394842296877980     
  0.10614571197752004     
  -2.5203211194128244E-002
 -0.23131953986076709     
  -3.2052755123537141E-002
  0.18875729568537916     
  0.35656235165565531     
  0.40231214349275263     
  0.30617357837446008     
  0.12220200401407935     
   7.3472554147863245E-002
 -0.14528089198455740     
 -0.16164907485691379     
  -9.9584717509031390E-002
  -2.1974472158245141E-002
  0.24746362039431660     
  0.25164546012825950     
  0.14163088403252116     
  0.19313657560050651     
   8.3233818654839892E-002
  0.50170167388375853     
 -0.10816062433626124     
  -8.6431699174972607E-002
  0.45140928641291467     
  -7.0994089796083654E-002
  0.36527041427841522     
  -1.2307930106917886E-003
  0.27366568882147529     
  0.11772451257635042     
  0.20628222315145547     
  0.26139945396090597     
  0.18544061655114813     
  0.19309302812529616     
  0.12653506540376969     
   7.9089327882570282E-002
   8.1005591074900574E-002
  0.14067638894739826     
 -0.16167301463224371     
  0.17891535180868134     
  0.11594854460310389     
 -0.20078813565255180     
  0.63368430986959545     
  0.63667442754442405     
 -0.72153980691586161     
  0.14035262312770119     
 -0.39565991253658894     
  0.26252091359779972     
  0.46854917337412283     
 -0.14870344760950227     
  0.19500169277871179     
  0.42084012374714797     
 -0.15941428933074414     
   8.9149996371668136E-002
  0.26423139498704545     
 -0.32357176928606668     
  0.55375759555602699     
  0.68973449651413177     
  0.57502256893160975     
  0.24792010989183727     
 -0.42827526685910100     
 -0.48422346653197268     
  0.49815699160676130     
  0.56804360052131353     
  0.50343390260772858     
  0.50153579872670484     
 -0.11497811059518662     
   2.0576597699884069E-002
  0.20294972087921004     
  0.17655798607846485     
 -0.29506595192324886     
 -0.17195387211734153     
  -8.2387581678358218E-002
  0.27491406778390781     
 -0.72281807015250865     
 -0.54934079927288093     
 -0.19784845915024796     
 -0.31146483193606589     
 -0.37030115250132922     
 -0.39498429179177280     
  -4.0612420141746999E-002
 -0.20757052314326097     
  -6.7198998283964986E-002
 -0.11617274037442277     
 -0.14406133768004115     
 -0.16087597648661056     
  -7.6173127934319629E-002
  -1.0134285090947194E-002
 -0.33376305901607251     
 -0.24176064164199323     
 -0.12066393878315473     
 -0.51088084237292120     
  0.21886839676955464     
  0.30730750348038161     
  0.19952592525639634     
 -0.19246953328224808     
 -0.38376526801243760     
   3.3326634166964478E-002
 -0.42147128081936469     
   9.5511933792077772E-002
  0.23029752949623333     
   6.0974250671439606E-003
  0.45130766509192244     
 -0.48838765804114348     
 -0.52625808132871310     
 -0.26778905409554360     
  0.17712996436254702     
  0.71310764251634484     
  0.62135030241494338     
 -0.30331632181078866     
  0.59723533742952595     
  0.21895926947839472     
 -0.17517638305815705     
   4.3722809527266704E-002
  0.45833527423111875     
  -6.9401027239507695E-002
 -0.12604112078905128     
 -0.32125420629587020     
 -0.37968674719150092     
  0.26370884578278336     
  0.30311905971247993     
  0.12164329629187698     
  0.72227978987115005     
 -0.14123844367304828     
  0.49784807030179024     
 -0.30841405419345513     
 -0.28073621662316872     
  -5.8730454007394461E-002
  0.26298037449800449     
  0.44808937824738315     
 -0.11339121062694303     
 -0.42455955346565144     
  0.11244239184016519     
  0.45478539525760348     
 -0.34404748448172029     
  0.64628505295849703     
  0.72852639978122324     
 -0.39836422368537522     
  0.44701134383092295     
 -0.28035153412118718     
   3.2873744954654116E-002
  -5.6828875141793384E-002
 -0.27290329751457482     
 -0.49004660852269799     
 -0.56467975611257670     
 -0.56685986356618723     
 -0.48307997111992995     
 -0.27940321208773733     
 -0.46270410463676437     
 -0.60838387269175043     
 -0.66704851601345228     
 -0.40336180936189603     
 -0.25904691969255556     
 -0.56146053702396159     
 -0.51373878092319647     
 -0.26052980972871187     
 -0.10516640745571526     
 -0.21133797873251547     
 -0.34887685325085882     
  -2.7460458121242204E-002
   9.5193862405626994E-002
  -4.8702560703637987E-002
 -0.30319902968191742     
  -2.8523928467636350E-002
  0.20600718402284543     
  -7.0301832018103361E-002
 -0.38996722524378336     
  0.38134612580862015     
 -0.34211552063572281     
   7.0231598201362710E-002
  -4.4811780292015865E-002
  -9.4296467908638867E-002
  -5.5096285288940595E-003
  -6.5703100219637478E-008
  -7.3193802177058099E-008
  -0.0000000000000000     
  -9.6213309018221463E-002
   1.3223816099616231E-002
   8.7728121281417642E-003
   3.5620441722769888E-002
   1.1451085925766236E-002
   1.5490934608602583E-002
 -0.10249026978118811     
  -6.2031539628664163E-003
  -4.0519992468962276E-002
 -0.11799323749784760     
   8.8492485120368388E-003
   2.4544179265668830E-002
   4.0097563548261314E-002
  0.11450297995611375     
  -2.6241784627219548E-002
  -3.2494877494759128E-002
   3.2256581806969446E-003
   4.4699013777567409E-004
  -6.1941730012750371E-002
  -8.2123726328032623E-002
   3.4818156528511994E-003
  -3.5672994149994572E-002
  -4.6352007094594749E-002
  -1.4649767815378904E-002
   5.6257363126584685E-002
  -4.7119190765832743E-002
  -5.2702746185374953E-002
  -3.7172370008727487E-002
  -1.9278249677581773E-002
  -8.1931771345689755E-002
  -7.6355009711328942E-002
  -6.7437175743648742E-002
  -5.6031990181452690E-002
  -4.2335085739364231E-002
  -3.6071322174021446E-002
   3.7323775224420402E-002
  -8.8806637936883343E-003
  -2.6419637218213096E-002
   3.9183165404822112E-002
   3.1452481483891681E-002
  -7.2033505052328431E-002
   1.7528793893162996E-002
  -2.8157245669287179E-004
  -8.2682041997620415E-002
  -7.7168773813594924E-002
  -6.4957534661951824E-002
  -6.5819335443158697E-002
  -7.7136639047254804E-002
  -8.7210238272099394E-002
  -9.5836667862627178E-002
 -0.10165824040230201     
   4.1775806608240450E-003
  -3.9175163627738166E-002
  -1.8169486640272771E-002
  -3.0987029667169340E-003
  -2.2212615333727186E-002
  -1.8025956092256670E-002
  -8.8443286371428925E-003
  -1.7060014759032373E-002
  -2.9435781672182491E-002
  -4.1044519071800026E-002
  -4.5236141243667670E-002
  -3.7943856800513300E-002
  -8.0826321074301377E-002
  -7.1801546684367348E-002
  -2.0664536842269456E-002
  -3.0332614256800696E-002
  -3.3124308196007021E-002
  -2.7849478517268659E-002
  -1.5997115732348050E-002
   2.6861365057507164E-002
   1.1362884859404961E-002
  -6.2999964593759804E-003
  -2.2972591385825910E-002
  -4.4412442277022519E-002
  -9.3073958697166670E-002
  -4.8471396113584746E-002
  -5.0120774404078985E-002
  -5.1836671103242853E-002
  -4.7744512218167324E-003
  -5.5723404079629189E-002
  -1.9694347641386542E-002
  -6.2663623533193227E-002
  -3.0313419458908079E-002
  -3.4990841919306771E-002
   1.7135871771752732E-002
  -8.6769016950955194E-002
  -3.3876511628634115E-002
  -8.6753816224274721E-002
  -2.8927727802277137E-002
  -7.9099774023789496E-002
  -2.3168485820684065E-002
  -6.4790141475130139E-002
  -1.9519789137860885E-002
  -4.7237748839377439E-002
  -1.9983229642848842E-002
  -3.0727171654981608E-002
  -2.5230131931670181E-002
  -1.9043197269993463E-002
  -3.4618733302803580E-002
   8.1747662127036144E-002
  -1.8348692565198343E-002
  -5.7587287095211985E-002
  -6.4904164489541463E-002
  -6.5365617616748750E-002
  -5.8242372593529206E-002
   5.2044402080248651E-002
  -4.5911814299135018E-002
  -3.7855632793547894E-002
  -2.3841487014026278E-002
  -1.8673586370396164E-002
   7.5459328284427973E-002
  -8.0657403168600497E-002
   7.7712207528865693E-002
  -4.1269429016097328E-004
   3.8202081932422895E-002
   3.9979886139663787E-002
   3.1967484718741800E-002
   2.0757023264497614E-002
  -8.7561150058614728E-002
  -1.0673318152389919E-003
  -3.5674319144449552E-002
  -7.0597199153160997E-003
   7.4185245146339493E-003
  -1.7698811866338694E-002
  -3.3636821139024733E-002
  -4.3927208232209525E-002
  -4.5745022865655453E-002
   4.2884565053659146E-002
  -3.9541037455149475E-002
   2.4444279753221079E-002
  -2.8161512927984054E-002
   3.2892451794050200E-003
  -1.4611845110775356E-002
  -1.9904554327383726E-002
   1.4581044682430593E-002
   3.0585606202839531E-002
   4.5995892427605718E-002
   5.6858724142361983E-002
   5.8131236503961625E-002
   4.6405205583704354E-002
   2.2904066640665004E-002
  -5.6902072875338189E-003
  -2.9787749164348950E-002
  -4.1274437909235795E-002
  -2.6634605632547253E-002
  -1.4508576844612989E-002
   3.7293060991054200E-002
  -8.9682740186633851E-003
   5.1893004041248941E-003
   2.2894450192745497E-002
   1.0240336786094054E-002
   4.9866202779904334E-002
   3.1100655036396054E-002
   9.8679863156008948E-004
  -8.7421790032253699E-002
  -3.3421861469674588E-002
  -8.2587589532831948E-002
  -5.7904371179073072E-002
  -8.1292775605231987E-002
  -9.4550453959731856E-002
  -9.7147240793885925E-002
  0.19886739198751610     
  -8.3506527687140855E-002
  -7.9787404964512601E-002
 -0.10048869967030601     
  -7.2204208601757885E-002
 -0.11619924683906846     
  -5.6344011336537644E-002
 -0.11844456876919024     
  -3.0800729814618129E-002
 -0.11261003551375515     
 -0.10623356470323628     
   2.6805544611226778E-002
 -0.10466111415090938     
   5.0138807828971281E-002
 -0.10828412012752275     
   3.1611911270871824E-002
 -0.11265947249070599     
   2.6772978714680387E-003
 -0.11110766756918815     
  -2.3160540307114834E-002
  -9.8110978005828825E-002
  -3.4018889457328672E-002
  -7.1906555563134855E-002
  -2.5611145247451311E-002
  -3.5676604025560651E-002
   2.3658423012058206E-003
   3.1083984216385883E-002
   4.0898135387471196E-002
   2.9333106487960413E-002
   4.4627728180725683E-003
   4.1297233265042151E-002
   2.3653642628581894E-002
  -1.8886080336005640E-002
  -3.8123267391005751E-002
 -0.11135466805967126     
 -0.10361651394803967     
  0.19462679660759397     
  0.19750353597252948     
 -0.12001213883438738     
 -0.12714032993942281     
 -0.11153035356432633     
  -5.3641134705469357E-002
  -4.4952695381561283E-002
  -6.4617442118833052E-002
   7.5804636279180646E-002
  -8.6113293513308181E-002
   6.2694747141589444E-003
   3.9506577407869080E-002
 -0.10374486011596286     
   5.3448731734132685E-002
  -7.7999117503088328E-002
   4.9918863688182921E-002
   3.8614815885983506E-003
   3.4048978270856949E-002
   3.2306707030012774E-002
   3.7306428155470972E-002
  -5.0063454698707641E-002
  -7.6481751412853349E-002
   9.0866049149763289E-004
  -8.8054845101989146E-002
  -7.6373589995182262E-002
  -4.1728947019054816E-002
   3.9694087824413402E-002
   8.6666634396917117E-002
  0.10843579591857425     
  -4.2906531828463060E-003
  -4.0154247643089516E-002
  -2.0310980183863826E-002
   2.9688083396531319E-002
   6.3634479682716044E-002
  0.16656286195624598     
  -2.8857922866702426E-002
   4.5618446396582926E-002
  0.11618218960299243     
  0.19203235189202617     
  -4.5414877827702378E-003
   7.5686477201547406E-002
  0.18907016434723956     
  0.14755305834961457     
  0.17361361724277719     
  0.19420009216929257     
  0.14085463778628182     
  0.21213567830918198     
   8.9716979609221828E-002
  0.21052710785975481     
  0.20419994197214136     
   2.7661333320685499E-002
  0.20449521739376977     
  -2.1083596556752890E-002
  0.21311011707057495     
   2.5275973504633106E-002
  0.22228558070022891     
   7.1380351381568480E-002
  0.21951125889277784     
   9.1978138815310057E-002
  0.19400415709719368     
  0.14283788978531498     
   7.5172954550021237E-002
   1.2185741857835823E-002
  -2.0668024093345887E-002
  -1.4629237669114198E-002
   3.2184431935811088E-002
 -0.16095644543030516     
  -1.0374619715727770E-002
   3.1471992214333458E-002
  0.17851033997885110     
  0.17354784390217146     
 -0.13962345954378119     
 -0.13658556135719838     
 -0.13381531468176056     
 -0.13199081823688252     
 -0.12286736969336721     
  0.17173750156828610     
  0.14899279641760016     
   9.2133224674641218E-002
  0.15899755775559932     
  0.12269438650147887     
   8.2554371045250735E-002
   5.6957916115863275E-002
  0.13082131823687415     
   5.5234083040768378E-002
  0.14081786850682104     
  0.10996200249995482     
  0.14654127623077426     
   7.7876369921188113E-003
  -3.4054389435290641E-002
  0.15211629991360456     
  -5.1517954697979221E-002
   9.6450620305121554E-002
  -4.4896875245946405E-002
  -2.0597716234853493E-002
  -4.7545678012537451E-003
   1.4861788551465256E-002
   4.2450210722106953E-002
   9.4402472030053891E-002
   9.6001881214011264E-002
  0.12105622587109281     
  0.11659617301904482     
   2.0877086332557256E-002
  -1.9535101101212760E-002
 -0.15612238165535774     
  -1.6589918275487035E-002
   2.2363101313691049E-002
  -1.3148400537722739E-002
   6.8810272021467084E-002
   1.2684666847369630E-002
   9.5827824613406651E-002
   6.5990149166478426E-002
  -4.7306481839695963E-002
  -9.5743839961148491E-002
   6.7118046056291514E-002
   2.4264226375967299E-002
  -2.6894479864720947E-002
 -0.13409324832980962     
  -6.7635359892056407E-002
 -0.11002023548893321     
  -8.6709804235049301E-002
  -6.5502202749586153E-002
  -8.7909487799791353E-002
  -8.5413699796878850E-002
  -9.2678777779433757E-002
   1.9949852570337809E-002
 -0.11377926766669332     
  -5.3350936425360193E-002
 -0.14155105534143220     
 -0.12004731325573487     
  -6.3442431461020340E-002
  -1.4886516700353944E-002
  0.19579037629745027     
  -3.8685290272731473E-002
  -4.5976076755995972E-002
 -0.13858782358633204     
  0.19756433997644721     
   1.9177313741694513E-004
   9.0205543483690871E-003
   1.9426838152094734E-002
   5.2372389243493897E-002
   7.8913581900500643E-002
   8.4384219161176582E-002
   6.3118376146994573E-002
   8.5782228319980086E-003
  -4.4185562855973082E-002
 -0.10357662341207848     
  0.11407179593239967     
 -0.13269198392031695     
  0.14578387953731919     
  -9.0949036565000196E-002
  0.15530627694218560     
  0.13930522359613001     
   9.7252493341061397E-002
   3.4129020340105537E-002
  -3.5331788636353056E-002
  -8.7716817471713615E-002
 -0.10253979804524158     
  -5.3057751341007847E-002
  -2.9427058355022545E-002
   2.8812686871025735E-002
  0.19422065761964513     
  0.16108094548827959     
  0.10041336007659672     
  0.16881469672595889     
  0.19865753637187139     
  0.15126031194759146     
  -7.9235410347565094E-002
  0.13542523534854253     
 -0.18649177007626844     
  -5.0822259973321786E-002