# vtk DataFile Version 3.1
Mesh with Data
ASCII
DATASET UNSTRUCTURED_GRID
POINTS         7552 float
      0.200000E+03      0.000000E+00      0.200000E+03
      0.000000E+00      0.000000E+00      0.200000E+03
      0.197500E+03      0.000000E+00      0.200000E+03
      0.195000E+03      0.000000E+00      0.200000E+03
      0.192500E+03      0.000000E+00      0.200000E+03
      0.190000E+03      0.000000E+00      0.200000E+03
      0.187500E+03      0.000000E+00      0.200000E+03
      0.185000E+03      0.000000E+00      0.200000E+03
      0.182500E+03      0.000000E+00      0.200000E+03
      0.180000E+03      0.000000E+00      0.200000E+03
      0.177500E+03      0.000000E+00      0.200000E+03
      0.175000E+03      0.000000E+00      0.200000E+03
      0.172500E+03      0.000000E+00      0.200000E+03
      0.170000E+03      0.000000E+00      0.200000E+03
      0.167500E+03      0.000000E+00      0.200000E+03
      0.165000E+03      0.000000E+00      0.200000E+03
      0.162500E+03      0.000000E+00      0.200000E+03
      0.160000E+03      0.000000E+00      0.200000E+03
      0.157500E+03      0.000000E+00      0.200000E+03
      0.155000E+03      0.000000E+00      0.200000E+03
      0.152500E+03      0.000000E+00      0.200000E+03
      0.150000E+03      0.000000E+00      0.200000E+03
      0.147500E+03      0.000000E+00      0.200000E+03
      0.145000E+03      0.000000E+00      0.200000E+03
      0.142500E+03      0.000000E+00      0.200000E+03
      0.140000E+03      0.000000E+00      0.200000E+03
      0.137500E+03      0.000000E+00      0.200000E+03
      0.135000E+03      0.000000E+00      0.200000E+03
      0.132500E+03      0.000000E+00      0.200000E+03
      0.130000E+03      0.000000E+00      0.200000E+03
      0.127500E+03      0.000000E+00      0.200000E+03
      0.125000E+03      0.000000E+00      0.200000E+03
      0.122500E+03      0.000000E+00      0.200000E+03
      0.120000E+03      0.000000E+00      0.200000E+03
      0.117500E+03      0.000000E+00      0.200000E+03
      0.115000E+03      0.000000E+00      0.200000E+03
      0.112500E+03      0.000000E+00      0.200000E+03
      0.110000E+03      0.000000E+00      0.200000E+03
      0.107500E+03      0.000000E+00      0.200000E+03
      0.105000E+03      0.000000E+00      0.200000E+03
      0.102500E+03      0.000000E+00      0.200000E+03
      0.100000E+03      0.000000E+00      0.200000E+03
      0.975000E+02      0.000000E+00      0.200000E+03
      0.950000E+02      0.000000E+00      0.200000E+03
      0.925000E+02      0.000000E+00      0.200000E+03
      0.900000E+02      0.000000E+00      0.200000E+03
      0.875000E+02      0.000000E+00      0.200000E+03
      0.850000E+02      0.000000E+00      0.200000E+03
      0.825000E+02      0.000000E+00      0.200000E+03
      0.800000E+02      0.000000E+00      0.200000E+03
      0.775000E+02      0.000000E+00      0.200000E+03
      0.750000E+02      0.000000E+00      0.200000E+03
      0.725000E+02      0.000000E+00      0.200000E+03
      0.700000E+02      0.000000E+00      0.200000E+03
      0.675000E+02      0.000000E+00      0.200000E+03
      0.650000E+02      0.000000E+00      0.200000E+03
      0.625000E+02      0.000000E+00      0.200000E+03
      0.600000E+02      0.000000E+00      0.200000E+03
      0.575000E+02      0.000000E+00      0.200000E+03
      0.550000E+02      0.000000E+00      0.200000E+03
      0.525000E+02      0.000000E+00      0.200000E+03
      0.500000E+02      0.000000E+00      0.200000E+03
      0.475000E+02      0.000000E+00      0.200000E+03
      0.450000E+02      0.000000E+00      0.200000E+03
      0.425000E+02      0.000000E+00      0.200000E+03
      0.400000E+02      0.000000E+00      0.200000E+03
      0.375000E+02      0.000000E+00      0.200000E+03
      0.350000E+02      0.000000E+00      0.200000E+03
      0.325000E+02      0.000000E+00      0.200000E+03
      0.300000E+02      0.000000E+00      0.200000E+03
      0.275000E+02      0.000000E+00      0.200000E+03
      0.250000E+02      0.000000E+00      0.200000E+03
      0.225000E+02      0.000000E+00      0.200000E+03
      0.200000E+02      0.000000E+00      0.200000E+03
      0.175000E+02      0.000000E+00      0.200000E+03
      0.150000E+02      0.000000E+00      0.200000E+03
      0.125000E+02      0.000000E+00      0.200000E+03
      0.100000E+02      0.000000E+00      0.200000E+03
      0.750000E+01      0.000000E+00      0.200000E+03
      0.500000E+01      0.000000E+00      0.200000E+03
      0.250000E+01      0.000000E+00      0.200000E+03
      0.000000E+00      0.000000E+00      0.000000E+00
      0.000000E+00      0.000000E+00      0.197500E+03
      0.000000E+00      0.000000E+00      0.195000E+03
      0.000000E+00      0.000000E+00      0.192500E+03
      0.000000E+00      0.000000E+00      0.190000E+03
      0.000000E+00      0.000000E+00      0.187500E+03
      0.000000E+00      0.000000E+00      0.185000E+03
      0.000000E+00      0.000000E+00      0.182500E+03
      0.000000E+00      0.000000E+00      0.180000E+03
      0.000000E+00      0.000000E+00      0.177500E+03
      0.000000E+00      0.000000E+00      0.175000E+03
      0.000000E+00      0.000000E+00      0.172500E+03
      0.000000E+00      0.000000E+00      0.170000E+03
      0.000000E+00      0.000000E+00      0.167500E+03
      0.000000E+00      0.000000E+00      0.165000E+03
      0.000000E+00      0.000000E+00      0.162500E+03
      0.000000E+00      0.000000E+00      0.160000E+03
      0.000000E+00      0.000000E+00      0.157500E+03
      0.000000E+00      0.000000E+00      0.155000E+03
      0.000000E+00      0.000000E+00      0.152500E+03
      0.000000E+00      0.000000E+00      0.150000E+03
      0.000000E+00      0.000000E+00      0.147500E+03
      0.000000E+00      0.000000E+00      0.145000E+03
      0.000000E+00      0.000000E+00      0.142500E+03
      0.000000E+00      0.000000E+00      0.140000E+03
      0.000000E+00      0.000000E+00      0.137500E+03
      0.000000E+00      0.000000E+00      0.135000E+03
      0.000000E+00      0.000000E+00      0.132500E+03
      0.000000E+00      0.000000E+00      0.130000E+03
      0.000000E+00      0.000000E+00      0.127500E+03
      0.000000E+00      0.000000E+00      0.125000E+03
      0.000000E+00      0.000000E+00      0.122500E+03
      0.000000E+00      0.000000E+00      0.120000E+03
      0.000000E+00      0.000000E+00      0.117500E+03
      0.000000E+00      0.000000E+00      0.115000E+03
      0.000000E+00      0.000000E+00      0.112500E+03
      0.000000E+00      0.000000E+00      0.110000E+03
      0.000000E+00      0.000000E+00      0.107500E+03
      0.000000E+00      0.000000E+00      0.105000E+03
      0.000000E+00      0.000000E+00      0.102500E+03
      0.000000E+00      0.000000E+00      0.100000E+03
      0.000000E+00      0.000000E+00      0.975000E+02
      0.000000E+00      0.000000E+00      0.950000E+02
      0.000000E+00      0.000000E+00      0.925000E+02
      0.000000E+00      0.000000E+00      0.900000E+02
      0.000000E+00      0.000000E+00      0.875000E+02
      0.000000E+00      0.000000E+00      0.850000E+02
      0.000000E+00      0.000000E+00      0.825000E+02
      0.000000E+00      0.000000E+00      0.800000E+02
      0.000000E+00      0.000000E+00      0.775000E+02
      0.000000E+00      0.000000E+00      0.750000E+02
      0.000000E+00      0.000000E+00      0.725000E+02
      0.000000E+00      0.000000E+00      0.700000E+02
      0.000000E+00      0.000000E+00      0.675000E+02
      0.000000E+00      0.000000E+00      0.650000E+02
      0.000000E+00      0.000000E+00      0.625000E+02
      0.000000E+00      0.000000E+00      0.600000E+02
      0.000000E+00      0.000000E+00      0.575000E+02
      0.000000E+00      0.000000E+00      0.550000E+02
      0.000000E+00      0.000000E+00      0.525000E+02
      0.000000E+00      0.000000E+00      0.500000E+02
      0.000000E+00      0.000000E+00      0.475000E+02
      0.000000E+00      0.000000E+00      0.450000E+02
      0.000000E+00      0.000000E+00      0.425000E+02
      0.000000E+00      0.000000E+00      0.400000E+02
      0.000000E+00      0.000000E+00      0.375000E+02
      0.000000E+00      0.000000E+00      0.350000E+02
      0.000000E+00      0.000000E+00      0.325000E+02
      0.000000E+00      0.000000E+00      0.300000E+02
      0.000000E+00      0.000000E+00      0.275000E+02
      0.000000E+00      0.000000E+00      0.250000E+02
      0.000000E+00      0.000000E+00      0.225000E+02
      0.000000E+00      0.000000E+00      0.200000E+02
      0.000000E+00      0.000000E+00      0.175000E+02
      0.000000E+00      0.000000E+00      0.150000E+02
      0.000000E+00      0.000000E+00      0.125000E+02
      0.000000E+00      0.000000E+00      0.100000E+02
      0.000000E+00      0.000000E+00      0.750000E+01
      0.000000E+00      0.000000E+00      0.500000E+01
      0.000000E+00      0.000000E+00      0.250000E+01
      0.200000E+03      0.000000E+00      0.000000E+00
      0.250000E+01      0.000000E+00      0.000000E+00
      0.500000E+01      0.000000E+00      0.000000E+00
      0.750000E+01      0.000000E+00      0.000000E+00
      0.100000E+02      0.000000E+00      0.000000E+00
      0.125000E+02      0.000000E+00      0.000000E+00
      0.150000E+02      0.000000E+00      0.000000E+00
      0.175000E+02      0.000000E+00      0.000000E+00
      0.200000E+02      0.000000E+00      0.000000E+00
      0.225000E+02      0.000000E+00      0.000000E+00
      0.250000E+02      0.000000E+00      0.000000E+00
      0.275000E+02      0.000000E+00      0.000000E+00
      0.300000E+02      0.000000E+00      0.000000E+00
      0.325000E+02      0.000000E+00      0.000000E+00
      0.350000E+02      0.000000E+00      0.000000E+00
      0.375000E+02      0.000000E+00      0.000000E+00
      0.400000E+02      0.000000E+00      0.000000E+00
      0.425000E+02      0.000000E+00      0.000000E+00
      0.450000E+02      0.000000E+00      0.000000E+00
[...]
CELL_DATA        14782
SCALARS cvp float
LOOKUP_TABLE default
  -2.9118312219104672E-002
   6.1352421102922286E-002
  0.10666360884992687     
  -3.4040010760165468E-002
  -1.9020142713233774E-002
   4.5277327759827540E-002
  -7.4317683497986134E-002
  -3.4760379604671002E-002
  -5.6798313341519593E-002
  -7.3860083195598822E-002
  -1.8910544710803764E-002
  -1.1951498168298873E-002
  -1.9031271846920654E-002
  -2.8359508559430882E-002
  -3.4915342084320830E-002
  0.13476101979210364     
   3.8174843542579967E-002
  -2.3583740754618415E-002
  -5.7790168137127854E-002
  -7.6794988150871102E-002
  -5.1838025945427607E-002
  -6.8056666723379122E-002
  -4.2926992385963966E-002
  -5.9074858866725359E-002
  -6.7652130121982165E-002
  -8.3166688268150615E-002
  -8.2929895558947614E-002
  -6.4663512472353274E-002
  -7.1874103332960695E-002
  -7.9526448190888194E-002
  -8.4956389980982427E-002
  -8.4079358778793578E-002
  -5.6439226304554911E-002
  -3.3782876548526249E-002
  0.10672006334127061     
  -1.0225394569470650E-002
  0.10707334115231522     
  0.12025787372396259     
  0.11226212993946659     
  0.12212037334101357     
   2.6346668560919391E-002
   5.2464782509450164E-002
   7.6442231888518439E-002
   9.0981031488843150E-002
  -7.2639711091088452E-002
  -7.6806567328724859E-002
  -7.5805521892242891E-002
  -7.0499913252006996E-002
  -7.3492980128720825E-002
  -3.0249442021427233E-002
  0.22355640524208720     
  -6.0156553188349615E-002
  -7.1626514701346317E-002
  -3.9825286081704811E-002
  -7.2114459553142093E-002
  -1.5608895019211928E-002
  -7.0712641033278900E-002
   7.0783179049454248E-003
  -6.8121298248079734E-002
   2.4154960804601101E-002
  -6.1007970628519426E-002
  -4.6090710500897879E-002
   3.1952647525113925E-002
   5.6566887549139577E-002
   2.2253994379601537E-003
   7.2609264624492242E-002
   2.5254220057841340E-002
   9.2857616313344396E-002
   4.0539966498735459E-002
   4.6168899445668377E-002
 -0.27993590345752450     
 -0.11930464217228096     
   8.2728175883407362E-002
  0.10292186152232646     
   1.9593820921522433E-002
   2.7835142385691514E-003
  -6.7200851569197972E-003
  -1.3177062328763818E-002
   5.0788781804242539E-002
   2.0186128519348222E-002
  -1.4125139726589769E-002
  -5.7906062984315269E-002
   1.9081008979392546E-002
  -4.5797665773096810E-002
  -8.2895158508060462E-003
  -5.1948000442625958E-002
   1.8935540444995180E-002
   7.6652139560661248E-002
   9.1291184418023502E-002
   1.3189260773249393E-002
   4.5149687574157341E-002
   7.8587781023185768E-002
 -0.40204867086848156     
   5.9246673869246605E-003
  -2.6928806523017698E-003
  0.12056167617196095     
  0.10240242285916670     
 -0.15200992369142607     
   4.1131200753388802E-002
   7.2216130412601928E-002
   3.6930046365052205E-002
   4.1514570315476923E-003
  -1.9337162554378895E-002
  -2.4571798587080335E-002
  -9.3612395569800319E-003
 -0.38548313394208389     
   6.4255134245172263E-002
   4.5795701344640893E-002
  0.18072015212536263     
  0.13171915297590994     
  0.10346541207223534     
  0.14886285903556729     
   5.4855976137443266E-002
   9.3349488449637003E-002
  0.16362801163322221     
   3.2789207626215407E-002
  0.17760710938892343     
   7.3661333804204671E-002
  0.15489134708369381     
  0.11483356407348536     
  0.11809329090071982     
  0.15466836416321506     
   7.4876928170818285E-002
  0.18736231867509390     
  0.20429431647410790     
  -3.9400037841791927E-002
  0.19976727027408220     
  -6.4691772565088568E-002
  0.17441888795133209     
  -8.0484381584286516E-002
  -8.5279084565769284E-002
   8.9957436007400110E-002
   4.7673972447506055E-002
 -0.14750236974531744     
   1.1011305709318527E-002
  -2.1300558076598794E-002
  -5.2016272251273178E-002
  -8.1483248566706259E-002
 -0.10574664233358635     
 -0.17303643379267383     
 -0.15767176107482456     
   5.2774733565426106E-002
   5.3365296076318069E-002
   1.7166165790073115E-002
  -3.4776714986823679E-002
  0.22504230598112740     
  0.18573126924434255     
  0.21961308937607787     
  0.21016473737014008     
  0.18824203230591721     
  0.21623277240574229     
  0.21806338335257675     
  0.23049284698225017     
  0.16153863290928655     
 -0.39271140513963204     
  0.13683075160186026     
  0.19921141142792620     
   8.6002648968459092E-002
  0.23266140893565590     
   2.2291862362690016E-002
  0.21644902433765323     
   1.1736163117814653E-002
  0.17651995912158147     
   2.2789619429578801E-003
  0.12102276916261348     
   4.3982945907308085E-002
  -5.7967888858562952E-002
 -0.10903976920760880     
   2.1408460755712871E-002
   1.8626299614450731E-003
   4.1386208291483255E-003
   1.5315434577369252E-002
   1.6481015937305457E-002
  -7.4604009826259275E-003
  -5.8516840004193653E-002
 -0.12380992082361798     
 -0.37367532692776012     
 -0.21771069680204697     
   6.4623117518623735E-002
   9.6730475473122884E-002
  -6.6842595650767833E-002
  -1.1774764484427672E-002
  0.13054154648571978     
   9.9518795241899133E-002
  0.18513120218864210     
   6.0019769888419353E-002
  0.21749499324931099     
  0.20032783118776981     
  -9.0375230851284474E-002
  0.15968340582051896     
  -7.7149907435156428E-002
   1.8533146983858165E-002
  -6.0644728393583369E-002
 -0.12272940374896288     
 -0.11489327533622640     
   8.2313557430200458E-003
  -6.8325153298522845E-002
 -0.14098062035560938     
  -9.3841670180150744E-002
  -2.6724450939989097E-002
   3.6291694660495546E-002
   7.0798278514925678E-002
   6.1106527239542539E-002
   7.2669954871307976E-003
  -6.9042507917967844E-002
 -0.18727011238045677     
  -5.6811140223753033E-002
 -0.26859674116223120     
 -0.23388683465308580     
 -0.19491290074578094     
  0.16174135718400645     
 -0.28857711811448306     
  -7.2786126317051197E-002
 -0.16264467907684479     
   6.8791002015846175E-002
  -1.5597821237746334E-002
 -0.27171694421551090     
  -2.0864172148461951E-002
 -0.22719694888139297     
 -0.11834681598538788     
 -0.15920310020490619     
 -0.21118073751880273     
  -8.0731448373470349E-002
 -0.28370525750518372     
  -8.1821947575166087E-003
 -0.32181046289105497     
 -0.31902413082651315     
   4.8805515678904982E-002
 -0.24405354917005775     
  -8.0492316129583644E-002
  -2.2871234921858830E-002
 -0.36247256712806913     
   2.0726743944979864E-002
   4.3875646162625570E-002
 -0.16438362801380313     
 -0.26504538277871015     
 -0.32757934117466636     
 -0.38748352134463010     
 -0.35699295778024293     
 -0.35383636181725492     
 -0.38749405962368899     
 -0.37499267647859491     
 -0.31526327475403509     
  0.44629628872400118     
 -0.21062740143192191     
 -0.37849155819175595     
 -0.17840169985809429     
 -0.38129875277878966     
 -0.14963664059578982     
 -0.32417080401269255     
 -0.25229010693955783     
 -0.19455905913443711     
 -0.17276462141283652     
 -0.21387427158440783     
 -0.21708235453211802     
  0.14062206827784191     
 -0.16585860482271217     
 -0.43613619243359347     
 -0.43513463874065278     
 -0.12599413109683580     
  -8.6544141596227003E-002
  -5.3552904472217527E-002
 -0.17733960886596023     
 -0.23910750424357169     
 -0.13750317095089881     
 -0.27588165304462148     
  -9.1047723807952508E-002
 -0.37133235848840995     
 -0.32246919271704105     
 -0.18028514480839070     
 -0.23572993972661066     
 -0.29139994976945299     
 -0.36102107968093267     
  -2.3079598481601980E-002
 -0.34523229378577652     
   3.4528110394501918E-002
   1.6211029134635402E-002
  -8.2093186296541804E-002
 -0.22831665304012491     
 -0.42199427449561894     
  -2.9039063315227541E-003
  0.63769150942177810     
  0.26600084484353992     
   3.9356121386584619E-002
  0.22960812329300495     
  0.13493491073812502     
  0.25646365365520141     
  0.35685236141857701     
  0.10714456948842505     
  0.19992272059607902     
  -8.4682893939940107E-002
  0.17502777162093927     
   4.0061271277484913E-002
 -0.14532964067272841     
  0.16514721013243067     
 -0.32393412352702955     
  0.31403942600845147     
  0.28803530275329586     
  0.18437166838318753     
   2.0809126542496947E-002
 -0.32588527206023332     
 -0.40909931965839336     
  0.30092713084297085     
   5.1609737329414790E-002
  0.17702146641371919     
  0.28789350072114828     
  0.16992362281158430     
  0.44296312946824462     
  0.41713617050797808     
  0.40287044779107695     
  0.42297560219672714     
  0.37511431049042798     
  0.28727099455221317     
  0.38288475008720324     
  0.44130955478275707     
  -7.8484556013812407E-002
  0.44969697379782592     
 -0.18898644179162222     
  0.41194562672095847     
  0.34960434471430157     
  0.28473377297153979     
  0.22027206816015418     
   3.7088856065991174E-002
  0.46232403990939491     
  0.30827908021634759     
  0.31368794061773275     
  0.39394129240771542     
  0.34103760906338532     
  0.38112529720552890     
  0.42212329592026532     
  0.33583993828895298     
  0.42248047415956302     
  0.40725447161777539     
  0.37471638516530420     
  0.44022248688198679     
  0.32840245550272923     
  0.25377955442705313     
  0.28461213029101529     
  0.40082605429453699     
  0.54810455645071965     
  0.60486788359033050     
  0.45632877895775004     
  0.88710175029420313     
  0.66451652921378090     
  0.94941829009154144     
  0.82697835785977236     
  0.81526147456467046     
   1.0213247899731448     
   1.0304583745593607     
  0.85285779296728303     
   1.0825427220265149     
  0.98166663972803736     
  0.69396302600932325     
  0.97334692939539313     
  0.71883456167177218     
  0.95386794741822911     
  0.99199582297694910     
  0.84513892376656341     
  0.63238265012698047     
  0.52101810745519106     
  0.58743106958748148     
  0.23700585277170283     
  0.28336575578337159     
  -1.0667438954071993E-002
  -1.7195001025002578E-002
  -2.5345765062598680E-003
  -2.8841454300403814E-008
  -2.7994320529168900E-008
  -0.0000000000000000     
  -1.8661128646222189E-003
   2.8456560985053357E-002
   1.8349131963997754E-002
   1.1181311223355831E-002
  -3.7986534177973869E-004
   2.4087477352913167E-002
  -3.3860801904951228E-003
   1.2269203361224380E-002
   5.1645952700044720E-003
   4.6445759545497289E-003
   1.2178395113981685E-002
   1.1386734588158308E-002
   1.1681214390919643E-002
   2.5126064668388466E-002
   6.7081977073720047E-003
   2.3388740101294866E-002
   3.0783138365318784E-002
   3.4943131650975304E-002
   5.5215890622667130E-003
   1.1469981533309011E-003
  -2.0351508548936591E-002
   1.7870744223706936E-002
  -1.2406316088880986E-003
   3.5819926974808028E-002
  -1.2718102363553821E-002
   2.1892450493097644E-003
   1.0244851990354341E-002
   1.1546442672348044E-002
   1.1530580424575979E-002
  -9.6805426280437753E-004
   1.9186879545754114E-003
   5.4670737003488495E-003
   8.9316735703532067E-003
   1.1588825502293112E-002
   5.2793811424158357E-003
   1.2222505650602560E-002
   1.2958056293141501E-002
   1.2940016394852484E-002
   1.0774154878135846E-002
   1.0051654946246392E-002
  -1.4247157120752764E-002
   1.0034807600912875E-002
   1.0728045040585778E-002
  -2.5992909336185295E-003
  -2.6282436088219310E-003
  -9.9059572983657479E-004
   7.6770850536833392E-003
   4.3269988179437816E-003
   9.2173921598060968E-004
  -1.8088634217012824E-003
  -3.3363730818636653E-003
   3.0676337947230424E-002
   1.1110026219423289E-002
   1.7665474917395157E-002
   2.4598067228510462E-002
   2.8634266746151452E-002
   3.2180575059023261E-002
   3.6462929250884249E-002
   1.1001062754118968E-002
   8.9244264826527850E-003
   6.8607327247349505E-003
   5.9758706688998811E-003
   6.3282887991679138E-003
  -3.6155620870351127E-003
  -5.7243634328719706E-003
  -1.3437357537974259E-002
  -9.9711266153812324E-003
  -7.5804100544756385E-003
  -7.1861652724358582E-003
  -8.3909270396145316E-003
   4.6792281015874742E-003
   4.0000153966836659E-003
   4.4180425468133590E-003
   5.1889508695219019E-003
   4.0822539756691298E-003
  -1.7750944253492839E-002
   1.5866856720195086E-003
  -1.5984105928592736E-003
  -4.5221407952895209E-003
  -8.6403712878309856E-005
  -6.3741121186218011E-003
   7.6392522121711032E-004
  -6.7561761370741116E-003
   1.0276354924064748E-003
  -3.6623042467013797E-005
  -3.9538322005709566E-002
  -7.5426451577167812E-004
  -2.5533333166117347E-003
   2.7104354960154030E-003
  -5.7979293990880441E-003
   6.8484168109383924E-003
  -8.6098065083017958E-003
   1.1859518093010106E-002
  -1.0041685859378015E-002
   1.7795835998650054E-002
  -9.6625475789497636E-003
   2.4385270437994804E-002
  -7.6610730313420132E-003
   3.0853872455081543E-002
  -4.6403294268198194E-003
  -6.5399250631932943E-002
   3.7883546308998761E-002
   2.1398424690075219E-003
   5.4101164216170203E-003
   8.8415232783801458E-003
   1.2899950429417901E-002
  -4.7498604479402247E-002
   1.7840057874339482E-002
  -4.6934773824521894E-003
  -4.3916038978072062E-003
  -3.7092490039349613E-002
   8.9421166647596417E-002
   6.4471762820531034E-002
  -2.9329056919306144E-002
  -1.8468978621763079E-002
   2.4782983069047563E-003
  -7.4416788335947854E-003
  -1.2472978111311100E-002
  -1.6128112522371389E-002
  -1.9221266599609165E-002
  -9.8028754642421351E-003
  -3.1796199640403526E-003
  -1.6425255999908718E-002
  -1.7539173935834325E-002
  -1.2507376116966489E-002
  -1.0461820848259296E-002
  -1.0151565164809560E-002
  -1.2207596323762978E-002
  -2.1161362713765343E-003
  -1.5672339279415075E-002
   5.6347779744932826E-003
  -1.8807109487399280E-002
   7.0864601552832942E-003
  -1.9993346415541263E-002
   7.0590019215423100E-003
  -1.4458895552288017E-002
  -8.7626037408968047E-003
  -2.5392568931611858E-003
   2.9379268777326877E-003
   6.6277052438499734E-003
   7.9630942645602283E-003
   6.8875965841506334E-003
   3.9229619405824808E-003
   1.2195208665321351E-004
  -3.1464958064474679E-003
  -4.6403009962783223E-002
  -5.1245462557519453E-002
  -4.2374071410038378E-002
  -3.6184486155540027E-002
  -6.3687095054508716E-002
  -5.1177372592602993E-002
   1.8560087729854270E-002
   9.6090177489462844E-003
   1.0802402243362128E-002
   8.8369798903898851E-003
   6.3349402552569335E-003
   6.5459272009576672E-005
  -2.1551882932371660E-003
  -1.3997672729716099E-002
  -1.1464161334678129E-002
  -1.1949438570184528E-002
  -1.4700094197226850E-002
   2.4845848527287551E-002
  -1.8111620262653096E-002
  -1.4311810520492962E-002
  -1.0218868660463811E-002
  -8.4723657005692735E-003
  -9.4172762767295495E-003
  -1.8089973572752993E-003
  -1.1367573973004849E-002
   4.3411308052426160E-003
  -1.4093553264676480E-002
  -1.5661827432522060E-002
  -5.1742496329842409E-002
  -1.4851939967053579E-002
   4.9823005672527763E-003
  -1.1313976390631758E-002
  -2.7662994343841119E-003
  -5.7484406932423798E-003
  -1.2514952587159978E-002
   4.9561716829455219E-004
  -2.2494686850744138E-002
   6.1480844148751879E-003
  -3.0671253325384680E-002
   1.0250517324200683E-002
  -3.5455352758378099E-002
   1.2056626177627046E-002
   1.0967028120989821E-002
   6.5362087223997702E-003
  -1.3972110393534495E-003
  -1.2355733574054910E-002
  -2.4962060619519187E-002
  -6.1048413442879208E-002
  -7.1648093711586369E-002
   1.8656478643759807E-002
   6.1434448569356453E-004
   1.4781355516648945E-002
   1.5005819096407235E-002
   2.9208518584198543E-002
   2.8376132592468409E-002
  -4.7648958486201220E-003
  -7.1288253289646065E-004
  -4.0593195565880816E-004
  -3.7271812709542048E-003
   4.9143673323526777E-003
   9.7298638586866340E-003
   2.1043907395402763E-002
   1.3278296540029872E-002
   3.6010176568708925E-003
   4.1347216142497804E-003
   1.2481192118436405E-002
   7.3691796413788598E-003
   7.8629891604185213E-003
   1.1990554261248372E-002
  -9.4307847643920247E-003
   1.6176850033957836E-002
  -2.2055669418924805E-002
  -3.6483020404389839E-002
   1.6658850986010491E-002
   1.2876764571875601E-002
  -7.1246097770955044E-002
   7.4151617847752855E-003
   1.8022333360869533E-004
  -9.0460815921406031E-003
  -3.3440863360004264E-002
  -4.8367891753804362E-002
  -5.4160934454540753E-002
   1.0101581058382944E-002
  -2.0428133288778603E-002
  -1.1645566851469193E-002
  -3.0179539451175453E-003
   2.6017303648272788E-002
   1.7611898066423579E-002
   1.9482544240802896E-002
   1.9313114594545402E-002
   1.7529390942701582E-002
   2.0510028837566391E-002
   2.5127773375572201E-002
   2.5316963742994580E-002
   2.6687805987927572E-002
   2.3188106803273364E-002
   2.1223934987167820E-002
   2.2642763908194946E-002
   1.3813692550644834E-002
   2.4953325632633010E-002
   5.5248080092586702E-003
   2.8982054400050437E-002
   3.2329924436896196E-002
   4.0606272944379115E-002
   3.2853672524945976E-002
  -2.9467322470338911E-002
   2.9630644694177272E-002
  -3.8782432857709659E-002
   2.2954788350134578E-002
  -4.8319185944770679E-002
   1.4057335110180530E-002
  -5.7631199796144138E-002
   4.4143854902237850E-003
  -4.9905772500152042E-003
  -1.3801263218800179E-002
  -2.1929537867457705E-002
  -2.9395771577747632E-002
  -2.2886576641283268E-002
  -1.7999397827404937E-002
  -2.8286005420153439E-002
  -3.3987247731627680E-002
  -3.2543406744674465E-002
  -1.7408474009667680E-002
  -9.2671316854957900E-003
  -2.5106241625287549E-002
  -1.9932148032238670E-002
  -1.1749126529022061E-002
  -2.3855831634121000E-003
   5.6795035234475863E-003
   2.7321817205728186E-002
   3.0221801295023769E-002
   3.3401692025336285E-002
   2.7189182437975315E-002
   2.9589726544118601E-002
   3.2228307864077571E-002
   3.2507302303874143E-002
   3.1759253212373564E-002
   2.8770174668263294E-002
   2.7178721773117885E-002
   1.0924298232975308E-002
   3.7140006996994046E-004
   2.7840498733743724E-002
   2.7818632997994124E-002
  -2.4019352470269647E-002
   2.3868598573761498E-002
  -2.9131342661446610E-002
   1.6020842295247573E-002
   6.0300259811826955E-003
  -3.3525347164460859E-002
  -4.0385423647621745E-003
  -3.1913198672071354E-002
  -3.0623730501514984E-002
  -1.9418574000852382E-002
  -2.4227016770783701E-002
  -2.7500650971701610E-002
  -2.9380833626185519E-002
  -2.7153021834105145E-002
  -2.0714958275336370E-002
  -3.2038781323379742E-003
  -1.4035580396443075E-002
  -1.8311640754419569E-002
  -6.1719843404465513E-002
   1.2976380661393137E-002
   2.3176171937767574E-002
   1.6307018381632548E-002
   1.2051365844225597E-002
   1.0488109014573314E-002
   1.0550735972403228E-002
   4.6085407332976357E-003
   1.8529046274880180E-003
  -2.6732940702180345E-002
  -8.7686133712791894E-004
  -2.5412621554345066E-002
  -6.3560276106519528E-003
  -2.2258067588112107E-002
  -1.4721054969585104E-002
  -2.4015469104102797E-002
  -3.1386992995302121E-002
  -9.2213410800666019E-003
  -3.4721507391605073E-002
   4.5997980500014609E-003
  -3.3449873427703086E-002
  -1.2314647123119377E-002
  -4.2816156078422651E-003
   3.0221407498294967E-003
   5.0546224438504636E-002
   5.8335605678454666E-002
   4.9932448375463373E-002
   1.1003885641699296E-002
  -1.0988271848221209E-002
  -3.1066407396698831E-002
  -2.4200476070377296E-002
  -4.0344105464430069E-002
  -5.0097835693342127E-002
  -5.6802172913227436E-002
  -5.7623396901205909E-002
  -5.1577589685241440E-002
  -4.2203265654779526E-002
  -2.3612770147563040E-002
  -6.1373111747156164E-003
  -6.8466754267782343E-002
   2.6484431371346671E-002
  -6.8782770370858920E-002
   3.9522257391241530E-002
  -6.1264295758069610E-002
  -4.6764988530838762E-002
  -2.7687154552109988E-002
  -6.6017641626521240E-003
   1.4395043887908618E-002
   3.3824218764718514E-002
   5.0680198017370851E-002
   7.5041196602402882E-002
   9.3190278851700684E-002
   7.5847485871742504E-002
   1.2390320086011361E-002
   3.4688448613803442E-002
   5.5953711488629036E-002
   1.1677465296936841E-002
   3.1554175863432357E-002
   6.9895695862617790E-002
   3.4589296923665191E-002
   4.6521447348167599E-002
   4.4057947329307151E-002
   3.9319045571064776E-002