# vtk DataFile Version 3.1
Mesh with Data
ASCII
DATASET UNSTRUCTURED_GRID
POINTS         7552 float
      0.200000E+03      0.000000E+00      0.200000E+03
      0.000000E+00      0.000000E+00      0.200000E+03
      0.197500E+03      0.000000E+00      0.200000E+03
      0.195000E+03      0.000000E+00      0.200000E+03
      0.192500E+03      0.000000E+00      0.200000E+03
      0.190000E+03      0.000000E+00      0.200000E+03
      0.187500E+03      0.000000E+00      0.200000E+03
      0.185000E+03      0.000000E+00      0.200000E+03
      0.182500E+03      0.000000E+00      0.200000E+03
      0.180000E+03      0.000000E+00      0.200000E+03
      0.177500E+03      0.000000E+00      0.200000E+03
      0.175000E+03      0.000000E+00      0.200000E+03
      0.172500E+03      0.000000E+00      0.200000E+03
      0.170000E+03      0.000000E+00      0.200000E+03
      0.167500E+03      0.000000E+00      0.200000E+03
      0.165000E+03      0.000000E+00      0.200000E+03
      0.162500E+03      0.000000E+00      0.200000E+03
      0.160000E+03      0.000000E+00      0.200000E+03
      0.157500E+03      0.000000E+00      0.200000E+03
      0.155000E+03      0.000000E+00      0.200000E+03
      0.152500E+03      0.000000E+00      0.200000E+03
      0.150000E+03      0.000000E+00      0.200000E+03
      0.147500E+03      0.000000E+00      0.200000E+03
      0.145000E+03      0.000000E+00      0.200000E+03
      0.142500E+03      0.000000E+00      0.200000E+03
      0.140000E+03      0.000000E+00      0.200000E+03
      0.137500E+03      0.000000E+00      0.200000E+03
      0.135000E+03      0.000000E+00      0.200000E+03
      0.132500E+03      0.000000E+00      0.200000E+03
      0.130000E+03      0.000000E+00      0.200000E+03
      0.127500E+03      0.000000E+00      0.200000E+03
      0.125000E+03      0.000000E+00      0.200000E+03
      0.122500E+03      0.000000E+00      0.200000E+03
      0.120000E+03      0.000000E+00      0.200000E+03
      0.117500E+03      0.000000E+00      0.200000E+03
      0.115000E+03      0.000000E+00      0.200000E+03
      0.112500E+03      0.000000E+00      0.200000E+03
      0.110000E+03      0.000000E+00      0.200000E+03
      0.107500E+03      0.000000E+00      0.200000E+03
      0.105000E+03      0.000000E+00      0.200000E+03
      0.102500E+03      0.000000E+00      0.200000E+03
      0.100000E+03      0.000000E+00      0.200000E+03
      0.975000E+02      0.000000E+00      0.200000E+03
      0.950000E+02      0.000000E+00      0.200000E+03
      0.925000E+02      0.000000E+00      0.200000E+03
      0.900000E+02      0.000000E+00      0.200000E+03
      0.875000E+02      0.000000E+00      0.200000E+03
      0.850000E+02      0.000000E+00      0.200000E+03
      0.825000E+02      0.000000E+00      0.200000E+03
      0.800000E+02      0.000000E+00      0.200000E+03
      0.775000E+02      0.000000E+00      0.200000E+03
      0.750000E+02      0.000000E+00      0.200000E+03
      0.725000E+02      0.000000E+00      0.200000E+03
      0.700000E+02      0.000000E+00      0.200000E+03
      0.675000E+02      0.000000E+00      0.200000E+03
      0.650000E+02      0.000000E+00      0.200000E+03
      0.625000E+02      0.000000E+00      0.200000E+03
      0.600000E+02      0.000000E+00      0.200000E+03
      0.575000E+02      0.000000E+00      0.200000E+03
      0.550000E+02      0.000000E+00      0.200000E+03
      0.525000E+02      0.000000E+00      0.200000E+03
      0.500000E+02      0.000000E+00      0.200000E+03
      0.475000E+02      0.000000E+00      0.200000E+03
      0.450000E+02      0.000000E+00      0.200000E+03
      0.425000E+02      0.000000E+00      0.200000E+03
      0.400000E+02      0.000000E+00      0.200000E+03
      0.375000E+02      0.000000E+00      0.200000E+03
      0.350000E+02      0.000000E+00      0.200000E+03
      0.325000E+02      0.000000E+00      0.200000E+03
      0.300000E+02      0.000000E+00      0.200000E+03
      0.275000E+02      0.000000E+00      0.200000E+03
      0.250000E+02      0.000000E+00      0.200000E+03
      0.225000E+02      0.000000E+00      0.200000E+03
      0.200000E+02      0.000000E+00      0.200000E+03
      0.175000E+02      0.000000E+00      0.200000E+03
      0.150000E+02      0.000000E+00      0.200000E+03
      0.125000E+02      0.000000E+00      0.200000E+03
      0.100000E+02      0.000000E+00      0.200000E+03
      0.750000E+01      0.000000E+00      0.200000E+03
      0.500000E+01      0.000000E+00      0.200000E+03
      0.250000E+01      0.000000E+00      0.200000E+03
      0.000000E+00      0.000000E+00      0.000000E+00
      0.000000E+00      0.000000E+00      0.197500E+03
      0.000000E+00      0.000000E+00      0.195000E+03
      0.000000E+00      0.000000E+00      0.192500E+03
      0.000000E+00      0.000000E+00      0.190000E+03
      0.000000E+00      0.000000E+00      0.187500E+03
      0.000000E+00      0.000000E+00      0.185000E+03
      0.000000E+00      0.000000E+00      0.182500E+03
      0.000000E+00      0.000000E+00      0.180000E+03
      0.000000E+00      0.000000E+00      0.177500E+03
      0.000000E+00      0.000000E+00      0.175000E+03
      0.000000E+00      0.000000E+00      0.172500E+03
      0.000000E+00      0.000000E+00      0.170000E+03
      0.000000E+00      0.000000E+00      0.167500E+03
      0.000000E+00      0.000000E+00      0.165000E+03
      0.000000E+00      0.000000E+00      0.162500E+03
      0.000000E+00      0.000000E+00      0.160000E+03
      0.000000E+00      0.000000E+00      0.157500E+03
      0.000000E+00      0.000000E+00      0.155000E+03
      0.000000E+00      0.000000E+00      0.152500E+03
      0.000000E+00      0.000000E+00      0.150000E+03
      0.000000E+00      0.000000E+00      0.147500E+03
      0.000000E+00      0.000000E+00      0.145000E+03
      0.000000E+00      0.000000E+00      0.142500E+03
      0.000000E+00      0.000000E+00      0.140000E+03
      0.000000E+00      0.000000E+00      0.137500E+03
      0.000000E+00      0.000000E+00      0.135000E+03
      0.000000E+00      0.000000E+00      0.132500E+03
      0.000000E+00      0.000000E+00      0.130000E+03
      0.000000E+00      0.000000E+00      0.127500E+03
      0.000000E+00      0.000000E+00      0.125000E+03
      0.000000E+00      0.000000E+00      0.122500E+03
      0.000000E+00      0.000000E+00      0.120000E+03
      0.000000E+00      0.000000E+00      0.117500E+03
      0.000000E+00      0.000000E+00      0.115000E+03
      0.000000E+00      0.000000E+00      0.112500E+03
      0.000000E+00      0.000000E+00      0.110000E+03
      0.000000E+00      0.000000E+00      0.107500E+03
      0.000000E+00      0.000000E+00      0.105000E+03
      0.000000E+00      0.000000E+00      0.102500E+03
      0.000000E+00      0.000000E+00      0.100000E+03
      0.000000E+00      0.000000E+00      0.975000E+02
      0.000000E+00      0.000000E+00      0.950000E+02
      0.000000E+00      0.000000E+00      0.925000E+02
      0.000000E+00      0.000000E+00      0.900000E+02
      0.000000E+00      0.000000E+00      0.875000E+02
      0.000000E+00      0.000000E+00      0.850000E+02
      0.000000E+00      0.000000E+00      0.825000E+02
      0.000000E+00      0.000000E+00      0.800000E+02
      0.000000E+00      0.000000E+00      0.775000E+02
      0.000000E+00      0.000000E+00      0.750000E+02
      0.000000E+00      0.000000E+00      0.725000E+02
      0.000000E+00      0.000000E+00      0.700000E+02
      0.000000E+00      0.000000E+00      0.675000E+02
      0.000000E+00      0.000000E+00      0.650000E+02
      0.000000E+00      0.000000E+00      0.625000E+02
      0.000000E+00      0.000000E+00      0.600000E+02
      0.000000E+00      0.000000E+00      0.575000E+02
      0.000000E+00      0.000000E+00      0.550000E+02
      0.000000E+00      0.000000E+00      0.525000E+02
      0.000000E+00      0.000000E+00      0.500000E+02
      0.000000E+00      0.000000E+00      0.475000E+02
      0.000000E+00      0.000000E+00      0.450000E+02
      0.000000E+00      0.000000E+00      0.425000E+02
      0.000000E+00      0.000000E+00      0.400000E+02
      0.000000E+00      0.000000E+00      0.375000E+02
      0.000000E+00      0.000000E+00      0.350000E+02
      0.000000E+00      0.000000E+00      0.325000E+02
      0.000000E+00      0.000000E+00      0.300000E+02
      0.000000E+00      0.000000E+00      0.275000E+02
      0.000000E+00      0.000000E+00      0.250000E+02
      0.000000E+00      0.000000E+00      0.225000E+02
      0.000000E+00      0.000000E+00      0.200000E+02
      0.000000E+00      0.000000E+00      0.175000E+02
      0.000000E+00      0.000000E+00      0.150000E+02
      0.000000E+00      0.000000E+00      0.125000E+02
      0.000000E+00      0.000000E+00      0.100000E+02
      0.000000E+00      0.000000E+00      0.750000E+01
      0.000000E+00      0.000000E+00      0.500000E+01
      0.000000E+00      0.000000E+00      0.250000E+01
      0.200000E+03      0.000000E+00      0.000000E+00
      0.250000E+01      0.000000E+00      0.000000E+00
      0.500000E+01      0.000000E+00      0.000000E+00
      0.750000E+01      0.000000E+00      0.000000E+00
      0.100000E+02      0.000000E+00      0.000000E+00
      0.125000E+02      0.000000E+00      0.000000E+00
      0.150000E+02      0.000000E+00      0.000000E+00
      0.175000E+02      0.000000E+00      0.000000E+00
      0.200000E+02      0.000000E+00      0.000000E+00
      0.225000E+02      0.000000E+00      0.000000E+00
      0.250000E+02      0.000000E+00      0.000000E+00
      0.275000E+02      0.000000E+00      0.000000E+00
      0.300000E+02      0.000000E+00      0.000000E+00
      0.325000E+02      0.000000E+00      0.000000E+00
      0.350000E+02      0.000000E+00      0.000000E+00
      0.375000E+02      0.000000E+00      0.000000E+00
      0.400000E+02      0.000000E+00      0.000000E+00
      0.425000E+02      0.000000E+00      0.000000E+00
      0.450000E+02      0.000000E+00      0.000000E+00
[...]
CELL_DATA        14782
SCALARS model_vs float
LOOKUP_TABLE default
   649.74311114149532     
   649.85922202589472     
   649.71648529002823     
   650.28773545348054     
   649.73609862034016     
   649.73119157522115     
   650.18789194162798     
   650.54821710240969     
   650.49118831622445     
   650.35974658195937     
   650.04225229152769     
   650.26364372402668     
   650.30969234003749     
   650.09959056714865     
   649.85490980014924     
   649.90180051105938     
   649.54257586407471     
   650.12439094513309     
   649.65166318288823     
   649.64815865394098     
   649.75080420560755     
   649.61249657422286     
   650.05734840859327     
   649.52686436696990     
   649.49539407405905     
   649.89908682623627     
   650.15543111379895     
   649.40078373353163     
   649.35078736984042     
   649.49820400723627     
   649.75098664593725     
   650.00313673278970     
   650.28767219855729     
   650.31832172819179     
   649.75612652178256     
   650.30791568930704     
   649.86120352272837     
   649.69349277963920     
   649.86042753060281     
   649.30900395631613     
   649.15168138840374     
   648.93261835835892     
   648.83114313252145     
   648.91806850842750     
   649.97154314107831     
   649.71966930683811     
   649.43615939911717     
   649.28595870359402     
   649.25716439525331     
   650.42372780234416     
   649.84603212967829     
   650.09537392419577     
   649.31725761315306     
   650.06271749636016     
   649.32224892864690     
   649.90680384552195     
   649.53110299753371     
   649.70429738362452     
   649.84054123975113     
   649.54479139056207     
   650.10465899715155     
   650.21201930702171     
   649.71668371175303     
   649.83485151438106     
   649.87666936163464     
   649.90680006626951     
   649.55633774867999     
   649.91439111092518     
   649.27459742186272     
   649.12726141010376     
   650.94426061691547     
   650.77864257713941     
   649.94676287681978     
   649.98884440902600     
   650.03700200913499     
   649.78325889760174     
   649.77435204577614     
   650.52773300985189     
   650.04999660779913     
   650.38402026987694     
   650.40156907612720     
   649.84212164353460     
   650.53186318375947     
   650.15654100319887     
   650.51877814211582     
   650.01308609422392     
   650.02911047975817     
   649.61391608174654     
   649.19973867856515     
   650.61352701831288     
   650.47975626526386     
   650.14853523738714     
   650.12516529757465     
   649.39148360910076     
   649.59412267305220     
   649.03179969360372     
   648.93764815641418     
   650.18501229776655     
   650.39204740080334     
   649.01681658502355     
   649.20700546674811     
   649.42191606896790     
   649.59799339883250     
   649.94738746553514     
   650.31550829658238     
   651.86717183844632     
   650.52289809300612     
   650.42840364563858     
   649.60325354952329     
   650.22525403215616     
   650.16041787025188     
   650.15220192499419     
   650.58730866897110     
   650.48661997546390     
   649.88809904786194     
   650.44196036566109     
   649.46077847671665     
   650.47299395758898     
   649.46511584956534     
   650.39764678164431     
   649.55267531091818     
   650.18540270417191     
   649.64843584535174     
   649.91134040844815     
   649.70765854346473     
   649.85962527332015     
   649.66390160419007     
   649.99392355234716     
   649.76251430795912     
   650.19470707969811     
   650.52272734840255     
   649.97329630387333     
   649.93446799727474     
   651.77417727123486     
   649.84347095114333     
   649.82226995169219     
   649.95195022949497     
   650.19733802913709     
   650.47093749595285     
   649.71800685085464     
   650.68629695990137     
   650.00085923610334     
   650.12689293805909     
   650.32359299288498     
   650.44874664087149     
   649.81610011698990     
   650.04244185314258     
   649.79767918126663     
   649.92466549742892     
   650.04229379290814     
   649.67860890836596     
   649.85343395256962     
   649.73113961802540     
   650.02855461853255     
   648.68772975576428     
   650.33158912357112     
   649.97763013549638     
   650.49759470208039     
   649.68283334771832     
   650.13051280362083     
   649.72917313328082     
   649.76024685333130     
   649.97283049198325     
   649.56968332999440     
   650.29156696091377     
   651.46529953056324     
   650.18031018786792     
   650.58592248753700     
   650.54993832042544     
   650.33825143606009     
   649.95942181890575     
   649.60884746259353     
   649.53262526339699     
   649.83532745176967     
   650.31971670468033     
   650.59011065313234     
   650.25807112051189     
   651.34468798451712     
   650.41383019480395     
   649.72453191512034     
   650.25876680454439     
   650.11836394427644     
   649.72098015180484     
   649.99215194604426     
   649.61044838809494     
   649.92840178987456     
   649.93515886166711     
   649.78362812926412     
   650.37172916896623     
   649.67688959977795     
   650.45212567658473     
   649.85477462416031     
   649.95786921977526     
   650.03726822573503     
   650.25193715252431     
   650.04353460973869     
   650.13330494445302     
   650.45568201290200     
   650.78320476931572     
   650.99746230495725     
   650.92960916125685     
   650.56290015874640     
   650.10879277076435     
   649.84417051049161     
   652.02787420031041     
   650.24474189620253     
   649.79979574361539     
   650.40123487285302     
   650.19334261497056     
   650.10299755040239     
   650.10051014546457     
   650.30955341344611     
   650.16173018162067     
   650.22582392408594     
   650.11586528076498     
   648.62977080846076     
   650.20147260002625     
   650.15292603440264     
   650.83662609248063     
   650.33471030096052     
   651.42128020442783     
   650.47174209118248     
   651.92878166370826     
   650.49084170063543     
   652.02373648360503     
   650.50800502317963     
   650.65171961651765     
   649.46425677505670     
   651.99382488510503     
   652.03807606225519     
   651.83356559304480     
   649.02520427133868     
   651.00930497505044     
   649.87588361138683     
   650.78545449665125     
   651.64375296784033     
   651.45307077266023     
   648.92536763454234     
   650.45271665810276     
   648.81080408578805     
   650.65168748006192     
   651.03023343356460     
   649.86856264367441     
   651.93486341920004     
   651.48844174621252     
   649.95109278686857     
   651.12892546069486     
   650.59910704289939     
   650.53654461038718     
   651.25833451953042     
   651.69789675159734     
   651.60269003002497     
   651.00807391012165     
   649.71003622816590     
   649.59539447687257     
   650.34496113955743     
   650.79948179034898     
   651.36680541660667     
   651.03300738265898     
   649.10073766789742     
   650.26715362120706     
   650.76015336522585     
   650.21521876124245     
   648.59291293879653     
   648.50113815490010     
   649.42585849085390     
   650.74051914064125     
   648.39828608202652     
   648.20164800524947     
   649.46696086908037     
   648.50996067688925     
   648.80316905795280     
   648.78021596881672     
   649.61605061774299     
   649.47447976379135     
   649.89458478211623     
   649.91487829253242     
   649.66809034717278     
   649.25457534470661     
   649.38472676818594     
   649.96025944793860     
   647.75114621584146     
   648.55901803073925     
   649.11767929657060     
   648.02102569069962     
   650.34884123248185     
   651.15735589424912     
   651.06166894268893     
   648.54056485634396     
   648.20450221357760     
   649.10634774449363     
   648.33746766102649     
   649.33564532539469     
   650.00758958057838     
   649.23079702216864     
   650.65339509994180     
   647.74485554373007     
   647.43910045824157     
   648.01498839620695     
   649.33788656270292     
   651.73661637795090     
   651.99393372321003     
   649.94759083901226     
   650.19030307048695     
   648.10498838415003     
   646.95774842583489     
   650.06474796020882     
   652.67401083601044     
   649.96735120521123     
   650.67534001148056     
   648.42078012569755     
   647.18188856234224     
   651.44474513617604     
   652.02161726738802     
   651.42060777295933     
   652.03606367570274     
   649.97089251437922     
   652.62360576371827     
   648.27859500397290     
   647.02536652861932     
   646.90700780245947     
   648.22354320406191     
   651.92323069338511     
   648.21389653541598     
   648.02870394806121     
   650.84503082065066     
   652.36658115438320     
   649.29269537882510     
   652.36204389144109     
   652.77490625103064     
   647.19748636552845     
   652.09087790101489     
   647.22500318422988     
   650.98222451735057     
   649.46484337738502     
   649.90478372924179     
   649.11786865967815     
   648.39867996170585     
   647.76198225297094     
   647.46105185373824     
   648.27684184393013     
   648.35003181059631     
   647.26725894087485     
   649.23744661184162     
   646.05792688754821     
   645.88252625534790     
   649.55835236998519     
   646.88482049525032     
   645.51449885913053     
   645.46993688676105     
   647.81054775093355     
   649.85903653445177     
   652.99432656467059     
   647.20209374037950     
   652.97072939756265     
   650.83404573569544     
   649.87727261825898     
   649.40473432175827     
   654.81652028240410     
   653.45478951226050     
   655.36395494546878     
   652.86120331821132     
   654.79802349791873     
   650.17274322506398     
   649.77405210125846     
   650.00058371689204     
   649.99999965217273     
   649.99999948430434     
   650.00000000000000     
   649.51989007042300     
   649.92904122864627     
   649.93520618355933     
   650.20983897083204     
   650.04421184181956     
   649.94716941996967     
   649.48814537786689     
   649.89177593589409     
   649.72564185060457     
   649.35333027273157     
   650.04288594051854     
   650.14291370184094     
   650.23604941589792     
   650.76209507258818     
   649.82485459631994     
   649.73798979014009     
   649.84727015105329     
   649.83433204237747     
   649.64526481914493     
   649.57420447475783     
   649.99746291370650     
   649.79097923382358     
   649.82186459064167     
   649.77435080198097     
   650.38796928986096     
   649.74742074830112     
   649.63993313025901     
   649.74067951536404     
   649.86134550564736     
   649.54624626717214     
   649.54772587639650     
   649.57294650801941     
   649.62423378608548     
   649.70307147305562     
   649.73972414185187     
   650.22308157772432     
   649.92488299976458     
   649.80650289118557     
   650.22718892271212     
   650.18242565998571     
   649.62689950358197     
   650.09932400386106     
   649.98699798015457     
   649.56738524663547     
   649.61046190154480     
   649.67262929447861     
   649.56624951227354     
   649.51887593187860     
   649.49181083024109     
   649.47844063553180     
   649.47626468195040     
   649.89178703539005     
   649.72122017993559     
   649.78792865130845     
   649.83241872379369     
   649.78554063831837     
   649.81075059617217     
   649.80538074672472     
   649.95878812149238     
   649.89785762141241     
   649.82910887372611     
   649.78855387861620     
   649.80580344266968     
   649.63882838830318     
   649.68550196151068     
   649.86636739475364     
   649.79116976212902     
   649.77080126186490     
   649.80609372608001     
   649.87961850979832     
   650.14162884841028     
   650.05191765021220     
   649.94305986797576     
   649.83241594545268     
   649.68035725047400     
   649.52659955566435     
   649.65961635968051     
   649.67033343621063     
   649.69562933716361     
   649.94700040756504     
   649.71528407879134     
   649.84972728450873     
   649.71348935691231     
   649.77352963721296     
   649.73625463899577     
   650.15917739001236     
   649.58967744714641     
   649.74542119590262     
   649.55787966232799     
   649.79391835452282     
   649.55878991437339     
   649.86199588843215     
   649.59349372604868     
   649.92443664797395     
   649.64911974031406     
   649.95869921962003     
   649.70743366590125     
   649.95151007823927     
   649.75244752468075     
   649.90206623083509     
   650.27931019837797     
   649.77081979512059     
   649.73229345877155     
   649.65922547974731     
   649.62456662941474     
   649.63579331259211     
   650.26167537514732     
   649.68100569949297     
   649.92121115888744     
   650.00181164496394     
   650.05473988588869     
   649.98449561198038     
   649.85400387892059     
   650.45276758289378     
   650.10716183852003     
   650.25019442330245     
   650.32368308059779     
   650.28747890147577     
   650.20976075252179     
   649.59436836224597     
   649.96438929309375     
   649.81852633958283     
   649.97846417302776     
   650.10108854849386     
   649.87956624361686     
   649.78955925914056     
   649.72932298323951     
   649.72402918048090     
   650.31206618082649     
   649.77851683198310     
   650.14343515018197     
   649.87698316894011     
   650.01146905614507     
   649.99399809766919     
   649.88720909232040     
   650.20416021005792     
   650.28001401903953     
   650.32963097234403     
   650.34346481537023     
   650.30996705614439     
   650.22482934591346     
   650.10249503765704     
   649.97779513996841     
   649.89217828345443     
   649.87402163455090     
   650.06162643684945     
   650.13518251229482     
   650.19444511618258     
   650.00172356311532     
   650.12293819862452     
   650.17615990886475     
   649.95627108123188     
   650.18897344369395     
   650.10010997862832     
   649.97615782389801     
   649.48478587284308     
   649.84663594703011     
   649.52123213906941     
   649.68912690859736     
   649.55832090124341     
   649.48305607538748     
   649.47808453904759     
   651.07704746068919     
   649.65167892379498     
   649.68932373387383     
   649.46635745126662     
   649.72087987583927     
   649.37023562886645     
   649.77107002377136     
   649.35706868840441     
   649.85736904088981     
   649.40585592125035     
   649.47223826348090     
   649.73159228180953     
   649.51372085857304     
   650.21043887086057     
   649.51213107831768     
   650.16152323328913     
   649.48135483246108     
   650.07761410625073     
   649.45759393171136     
   650.01397778123976     
   649.47986546467052     
   650.01299899458388     
   649.57152612729317     
   650.07999210326921     
   649.72857026919007     
   649.91612619574244     
   650.07911988569174     
   650.16755468946269     
   650.16534971515330     
   650.10633130541260     
   650.21834543300406     
   650.14882474194394     
   649.75227234935903     
   649.71826131347802     
   649.27675648799175     
   649.34159159025887     
   650.94537590247091     
   651.03043435535540     
   649.37402619592967     
   649.30736055787690     
   649.36831688524785     
   649.69538967826497     
   649.77694292358262     
   649.63885752444355     
   650.39787557310740     
   649.47752171984223     
   649.99087378475963     
   650.19497958712975     
   649.31828195140736     
   650.28644797180459     
   649.47607433582948     
   650.25878227214196     
   649.97189337145437     
   650.13677093868125     
   650.15235026348591     
   650.21221158348123     
   649.56157651811031     
   649.42922002985881     
   650.12328826498231     
   649.40343755131062     
   649.51258465774379     
   649.73636083063502     
   650.19410536969951     
   650.36232486699316     
   650.38879697682046     
   650.02358452764986     
   649.79100963978556     
   649.82913449647526     
   650.01271265956882     
   650.53774332380465     
   650.87360976902653     
   649.79243497562913     
   650.17419141813480     
   650.56799290470644     
   651.04015783056002     
   649.93215217541160     
   650.34501813437976     
   650.83887049180350     
   650.74961681167360     
   650.69936924805620     
   651.04428156889094     
   650.50766907191678     
   651.18321684747332     
   650.26489390896347     
   651.18742557948451     
   651.12245243906079     
   649.56486746429152     
   651.05513830907989     
   649.91785641839033     
   651.01625985403325     
   650.13762908252500     
   650.99146497598269     
   650.31903592250933     
   650.93605887714602     
   650.36362957328254     
   650.80358715075590     
   650.57736648379125     
   650.29379832423342     
   650.04296220745380     
   649.92985712773657     
   649.97294228498606     
   650.15114887352775     
   649.66559017222403     
   650.01291492324958     
   650.20624879681486     
   650.89047877092980     
   650.85388381580822     
   649.53194647830981     
   649.42075376977016     
   649.34485675783753     
   649.32308196000258     
   649.39347593875425     
   650.98199930541455     
   650.80242374150043     
   650.47533194929883     
   650.97963260647020     
   650.82642474141278     
   650.60863029850498     
   650.42709687776971     
   650.72662345667266     
   650.35146333233649     
   650.83493448570016     
   650.53657065674463     
   650.71171038179102     
   650.24560724748687     
   649.98947018345461     
   650.77132136233661     
   649.84615642130427     
   650.50962624848353     
   649.84042381682445     
   649.95437314941830     
   650.02697342585384     
   650.15170985403574     
   650.19824126152469     
   650.35370661881404     
   650.60344913817949     
   650.72113432502454     
   650.67284205261330     
   650.15904830877412     
   649.95985687396865     
   649.77099282077461     
   649.92837354329424     
   650.31479974198896     
   650.27208916016309     
   649.89321349417617     
   650.19932146409064     
   650.56745036775442     
   650.45026075472458     
   649.87859644302910     
   649.58460075291100     
   650.38613564922457     
   650.17345276062349     
   649.88720581491111     
   649.68219284931649     
   649.62197230027255     
   649.87728154574415     
   649.45901379464681     
   650.09582981678875     
   649.41575618356433     
   649.45251435153011     
   649.51377082696763     
   650.17617424894308     
   649.56552871413135     
   649.75289066093080     
   649.60746569946980     
   649.92714332580374     
   650.08237564737897     
   650.13854092886595     
   650.17977502229121     
   649.74286766691171     
   649.89440089279981     
   649.83579670503900     
   650.53383923421586     
   649.68899582382312     
   649.81313774340867     
   649.71391076848158     
   649.84849989057284     
   650.01453382580917     
   650.14387627150711     
   650.19633311602888     
   649.70928193751206     
   650.05062320276136     
   649.92058974862550     
   650.11318535349699     
   649.83749889800526     
   650.31472044763007     
   649.89328938774543     
   650.44742324626009     
   650.48390184764355     
   650.41572705278600     
   650.26191794295130     
   650.07500983459693     
   649.92650903733704     
   649.86289790847354     
   649.79059869095909     
   649.87958482930378     
   650.00262147655155     
   650.45381171730617     
   650.31993871150098     
   650.15729416639670     
   650.27940370482293     
   650.23924963534296     
   650.09308943154485     
   649.49497436095851     
   649.70380680103881     
   649.15475498848900     
   649.32245157700697     