# vtk DataFile Version 3.1
Mesh with Data
ASCII
DATASET UNSTRUCTURED_GRID
POINTS         7552 float
      0.200000E+03      0.000000E+00      0.200000E+03
      0.000000E+00      0.000000E+00      0.200000E+03
      0.197500E+03      0.000000E+00      0.200000E+03
      0.195000E+03      0.000000E+00      0.200000E+03
      0.192500E+03      0.000000E+00      0.200000E+03
      0.190000E+03      0.000000E+00      0.200000E+03
      0.187500E+03      0.000000E+00      0.200000E+03
      0.185000E+03      0.000000E+00      0.200000E+03
      0.182500E+03      0.000000E+00      0.200000E+03
      0.180000E+03      0.000000E+00      0.200000E+03
      0.177500E+03      0.000000E+00      0.200000E+03
      0.175000E+03      0.000000E+00      0.200000E+03
      0.172500E+03      0.000000E+00      0.200000E+03
      0.170000E+03      0.000000E+00      0.200000E+03
      0.167500E+03      0.000000E+00      0.200000E+03
      0.165000E+03      0.000000E+00      0.200000E+03
      0.162500E+03      0.000000E+00      0.200000E+03
      0.160000E+03      0.000000E+00      0.200000E+03
      0.157500E+03      0.000000E+00      0.200000E+03
      0.155000E+03      0.000000E+00      0.200000E+03
      0.152500E+03      0.000000E+00      0.200000E+03
      0.150000E+03      0.000000E+00      0.200000E+03
      0.147500E+03      0.000000E+00      0.200000E+03
      0.145000E+03      0.000000E+00      0.200000E+03
      0.142500E+03      0.000000E+00      0.200000E+03
      0.140000E+03      0.000000E+00      0.200000E+03
      0.137500E+03      0.000000E+00      0.200000E+03
      0.135000E+03      0.000000E+00      0.200000E+03
      0.132500E+03      0.000000E+00      0.200000E+03
      0.130000E+03      0.000000E+00      0.200000E+03
      0.127500E+03      0.000000E+00      0.200000E+03
      0.125000E+03      0.000000E+00      0.200000E+03
      0.122500E+03      0.000000E+00      0.200000E+03
      0.120000E+03      0.000000E+00      0.200000E+03
      0.117500E+03      0.000000E+00      0.200000E+03
      0.115000E+03      0.000000E+00      0.200000E+03
      0.112500E+03      0.000000E+00      0.200000E+03
      0.110000E+03      0.000000E+00      0.200000E+03
      0.107500E+03      0.000000E+00      0.200000E+03
      0.105000E+03      0.000000E+00      0.200000E+03
      0.102500E+03      0.000000E+00      0.200000E+03
      0.100000E+03      0.000000E+00      0.200000E+03
      0.975000E+02      0.000000E+00      0.200000E+03
      0.950000E+02      0.000000E+00      0.200000E+03
      0.925000E+02      0.000000E+00      0.200000E+03
      0.900000E+02      0.000000E+00      0.200000E+03
      0.875000E+02      0.000000E+00      0.200000E+03
      0.850000E+02      0.000000E+00      0.200000E+03
      0.825000E+02      0.000000E+00      0.200000E+03
      0.800000E+02      0.000000E+00      0.200000E+03
      0.775000E+02      0.000000E+00      0.200000E+03
      0.750000E+02      0.000000E+00      0.200000E+03
      0.725000E+02      0.000000E+00      0.200000E+03
      0.700000E+02      0.000000E+00      0.200000E+03
      0.675000E+02      0.000000E+00      0.200000E+03
      0.650000E+02      0.000000E+00      0.200000E+03
      0.625000E+02      0.000000E+00      0.200000E+03
      0.600000E+02      0.000000E+00      0.200000E+03
      0.575000E+02      0.000000E+00      0.200000E+03
      0.550000E+02      0.000000E+00      0.200000E+03
      0.525000E+02      0.000000E+00      0.200000E+03
      0.500000E+02      0.000000E+00      0.200000E+03
      0.475000E+02      0.000000E+00      0.200000E+03
      0.450000E+02      0.000000E+00      0.200000E+03
      0.425000E+02      0.000000E+00      0.200000E+03
      0.400000E+02      0.000000E+00      0.200000E+03
      0.375000E+02      0.000000E+00      0.200000E+03
      0.350000E+02      0.000000E+00      0.200000E+03
      0.325000E+02      0.000000E+00      0.200000E+03
      0.300000E+02      0.000000E+00      0.200000E+03
      0.275000E+02      0.000000E+00      0.200000E+03
      0.250000E+02      0.000000E+00      0.200000E+03
      0.225000E+02      0.000000E+00      0.200000E+03
      0.200000E+02      0.000000E+00      0.200000E+03
      0.175000E+02      0.000000E+00      0.200000E+03
      0.150000E+02      0.000000E+00      0.200000E+03
      0.125000E+02      0.000000E+00      0.200000E+03
      0.100000E+02      0.000000E+00      0.200000E+03
      0.750000E+01      0.000000E+00      0.200000E+03
      0.500000E+01      0.000000E+00      0.200000E+03
      0.250000E+01      0.000000E+00      0.200000E+03
      0.000000E+00      0.000000E+00      0.000000E+00
      0.000000E+00      0.000000E+00      0.197500E+03
      0.000000E+00      0.000000E+00      0.195000E+03
      0.000000E+00      0.000000E+00      0.192500E+03
      0.000000E+00      0.000000E+00      0.190000E+03
      0.000000E+00      0.000000E+00      0.187500E+03
      0.000000E+00      0.000000E+00      0.185000E+03
      0.000000E+00      0.000000E+00      0.182500E+03
      0.000000E+00      0.000000E+00      0.180000E+03
      0.000000E+00      0.000000E+00      0.177500E+03
      0.000000E+00      0.000000E+00      0.175000E+03
      0.000000E+00      0.000000E+00      0.172500E+03
      0.000000E+00      0.000000E+00      0.170000E+03
      0.000000E+00      0.000000E+00      0.167500E+03
      0.000000E+00      0.000000E+00      0.165000E+03
      0.000000E+00      0.000000E+00      0.162500E+03
      0.000000E+00      0.000000E+00      0.160000E+03
      0.000000E+00      0.000000E+00      0.157500E+03
      0.000000E+00      0.000000E+00      0.155000E+03
      0.000000E+00      0.000000E+00      0.152500E+03
      0.000000E+00      0.000000E+00      0.150000E+03
      0.000000E+00      0.000000E+00      0.147500E+03
      0.000000E+00      0.000000E+00      0.145000E+03
      0.000000E+00      0.000000E+00      0.142500E+03
      0.000000E+00      0.000000E+00      0.140000E+03
      0.000000E+00      0.000000E+00      0.137500E+03
      0.000000E+00      0.000000E+00      0.135000E+03
      0.000000E+00      0.000000E+00      0.132500E+03
      0.000000E+00      0.000000E+00      0.130000E+03
      0.000000E+00      0.000000E+00      0.127500E+03
      0.000000E+00      0.000000E+00      0.125000E+03
      0.000000E+00      0.000000E+00      0.122500E+03
      0.000000E+00      0.000000E+00      0.120000E+03
      0.000000E+00      0.000000E+00      0.117500E+03
      0.000000E+00      0.000000E+00      0.115000E+03
      0.000000E+00      0.000000E+00      0.112500E+03
      0.000000E+00      0.000000E+00      0.110000E+03
      0.000000E+00      0.000000E+00      0.107500E+03
      0.000000E+00      0.000000E+00      0.105000E+03
      0.000000E+00      0.000000E+00      0.102500E+03
      0.000000E+00      0.000000E+00      0.100000E+03
      0.000000E+00      0.000000E+00      0.975000E+02
      0.000000E+00      0.000000E+00      0.950000E+02
      0.000000E+00      0.000000E+00      0.925000E+02
      0.000000E+00      0.000000E+00      0.900000E+02
      0.000000E+00      0.000000E+00      0.875000E+02
      0.000000E+00      0.000000E+00      0.850000E+02
      0.000000E+00      0.000000E+00      0.825000E+02
      0.000000E+00      0.000000E+00      0.800000E+02
      0.000000E+00      0.000000E+00      0.775000E+02
      0.000000E+00      0.000000E+00      0.750000E+02
      0.000000E+00      0.000000E+00      0.725000E+02
      0.000000E+00      0.000000E+00      0.700000E+02
      0.000000E+00      0.000000E+00      0.675000E+02
      0.000000E+00      0.000000E+00      0.650000E+02
      0.000000E+00      0.000000E+00      0.625000E+02
      0.000000E+00      0.000000E+00      0.600000E+02
      0.000000E+00      0.000000E+00      0.575000E+02
      0.000000E+00      0.000000E+00      0.550000E+02
      0.000000E+00      0.000000E+00      0.525000E+02
      0.000000E+00      0.000000E+00      0.500000E+02
      0.000000E+00      0.000000E+00      0.475000E+02
      0.000000E+00      0.000000E+00      0.450000E+02
      0.000000E+00      0.000000E+00      0.425000E+02
      0.000000E+00      0.000000E+00      0.400000E+02
      0.000000E+00      0.000000E+00      0.375000E+02
      0.000000E+00      0.000000E+00      0.350000E+02
      0.000000E+00      0.000000E+00      0.325000E+02
      0.000000E+00      0.000000E+00      0.300000E+02
      0.000000E+00      0.000000E+00      0.275000E+02
      0.000000E+00      0.000000E+00      0.250000E+02
      0.000000E+00      0.000000E+00      0.225000E+02
      0.000000E+00      0.000000E+00      0.200000E+02
      0.000000E+00      0.000000E+00      0.175000E+02
      0.000000E+00      0.000000E+00      0.150000E+02
      0.000000E+00      0.000000E+00      0.125000E+02
      0.000000E+00      0.000000E+00      0.100000E+02
      0.000000E+00      0.000000E+00      0.750000E+01
      0.000000E+00      0.000000E+00      0.500000E+01
      0.000000E+00      0.000000E+00      0.250000E+01
      0.200000E+03      0.000000E+00      0.000000E+00
      0.250000E+01      0.000000E+00      0.000000E+00
      0.500000E+01      0.000000E+00      0.000000E+00
      0.750000E+01      0.000000E+00      0.000000E+00
      0.100000E+02      0.000000E+00      0.000000E+00
      0.125000E+02      0.000000E+00      0.000000E+00
      0.150000E+02      0.000000E+00      0.000000E+00
      0.175000E+02      0.000000E+00      0.000000E+00
      0.200000E+02      0.000000E+00      0.000000E+00
      0.225000E+02      0.000000E+00      0.000000E+00
      0.250000E+02      0.000000E+00      0.000000E+00
      0.275000E+02      0.000000E+00      0.000000E+00
      0.300000E+02      0.000000E+00      0.000000E+00
      0.325000E+02      0.000000E+00      0.000000E+00
      0.350000E+02      0.000000E+00      0.000000E+00
      0.375000E+02      0.000000E+00      0.000000E+00
      0.400000E+02      0.000000E+00      0.000000E+00
      0.425000E+02      0.000000E+00      0.000000E+00
      0.450000E+02      0.000000E+00      0.000000E+00
[...]
CELL_DATA        14782
SCALARS cvp float
LOOKUP_TABLE default
  -8.2486927191408099E-002
   8.4601323924609617E-002
  0.10913472214215161     
  -6.9875459632391279E-002
  -4.4017573868799162E-002
   4.8866541429464540E-002
  -4.2879091450164858E-002
   1.8647366076002279E-002
  -1.0393902010676276E-002
  -4.0088593992812352E-002
  -2.2323558355883791E-002
  -1.4199987838016537E-002
  -2.0105439209545432E-002
  -2.9146457979940962E-002
  -3.8376446648721654E-002
   4.8757313404332724E-002
   2.7192864258704708E-002
  -1.4105098690186113E-003
  -5.1775479968289205E-002
  -7.9829491054434876E-002
  -4.8844125075716324E-002
  -7.5687896831559964E-002
  -3.8477468446450634E-002
  -6.0339138626992743E-002
  -7.2211867234628843E-002
  -7.8138367548221344E-002
  -6.4417576727565637E-002
  -6.3689303107304862E-002
  -7.5845576793896904E-002
  -8.3796968325440813E-002
  -8.2446512783650852E-002
  -6.8394217838174023E-002
  -1.1661744583089467E-002
   1.8188225969214197E-002
  0.15712628956931751     
   4.1984956304319684E-002
  0.16333428382220008     
  0.17757282143531170     
  0.17244648444576036     
  0.10569788928283401     
  -3.7378308520930256E-002
  -1.0333515034035387E-002
   2.4816703757064070E-002
   5.8717935775025293E-002
  -7.0209391662746090E-002
  -8.5268111476380179E-002
  -8.6699582881897649E-002
  -6.6363999018950709E-002
  -7.8792544390962824E-002
  -5.4079573579685028E-002
  0.31488757500327869     
  -4.2332426912601660E-002
  -6.5996072518031940E-002
  -8.3122229414600152E-003
  -7.8512047369402205E-002
   2.2578318292566294E-002
  -8.5994854386553632E-002
   4.3024616164881700E-002
  -8.3828480250988435E-002
   5.1005469807459458E-002
  -6.7498860442556596E-002
  -3.7656801405353546E-002
  -5.6327368453186887E-002
   7.2922555142680368E-002
   3.0722631899342163E-002
  0.10382294042206464     
   5.0079848399226162E-002
  0.14069043358541264     
   5.3565623998629228E-002
   4.4463310267065050E-002
 -0.15626438199295636     
 -0.22193332649210512     
  0.12566377765076797     
  0.16004265238336762     
   1.9152269746570770E-002
  -1.9054979547538820E-002
  -8.6445921027004893E-002
  -4.4445416703094993E-002
   6.3117198517204959E-002
   2.5830029593248066E-002
  -5.8126473789809972E-002
  -8.1310592810721796E-002
  -2.2557363160581666E-002
  -7.5611475832625175E-002
  -1.7498310184175216E-002
  -7.8339037586671517E-002
   6.1261225418957718E-002
   8.3181109460006591E-002
   8.0924442981405387E-002
  -2.9588665847129752E-003
   4.5445670079226640E-002
   8.6939078240198253E-002
 -0.44987070513747124     
  -4.9600815845273025E-002
  -4.3466256741697781E-002
   7.8889546379718387E-002
   3.7786400097197193E-002
 -0.11446721951436511     
   6.2602334641348206E-002
  -6.5296227655681285E-003
  -4.5179807255383377E-002
  -7.2649651068288301E-002
  -8.5751433964201790E-002
  -6.2300377628344297E-002
  -2.7496571063705677E-002
 -0.50557296867694956     
   1.0187915273333899E-002
  -6.6297044393128085E-003
  0.16943031221712684     
  0.14384142627165597     
   7.6266982433986552E-002
  0.15656919773821523     
   3.0768590910785387E-002
   9.1405174391418736E-002
  0.17290095747501047     
  -1.2213361781727348E-002
  0.13555513798495938     
   4.7855935023326808E-002
   8.3391698707941442E-002
  0.11512253422784761     
   2.8053730781586204E-002
  0.17378616680743553     
  -1.9499487482005563E-002
  0.20708314355061347     
  0.20423313435482696     
 -0.11530767210977398     
  0.16710046141991242     
 -0.14334364925538440     
  0.10922693505780444     
 -0.16331934219631528     
 -0.16452426750386226     
  -1.0922104628710572E-004
  -3.3182719268720219E-002
  -1.8291807113777037E-002
  -5.7138937774149884E-002
  -8.3942343990018056E-002
 -0.12194541195160610     
 -0.16835180678466369     
 -0.20805143467695489     
 -0.15175563856362817     
 -0.29776863835761874     
  0.10898765937986894     
  0.15235597303745782     
  0.13318883334781534     
   7.0797578821377757E-002
  0.28994013378172484     
  0.14823548745811321     
  0.21989185366685379     
  0.27146721081150271     
  0.22654167932579999     
  0.30547143344739691     
  0.26705682597278468     
  0.26458485422217443     
  0.17235190026646097     
 -0.50242526102208507     
   7.3333014408048902E-002
  0.24717068680093340     
   1.7777199798320216E-002
  0.28651801085877854     
  -4.1413784149173169E-003
  0.23706067975638009     
   6.2732714409592296E-003
  0.15731282538522778     
  -7.5936834106871479E-004
   7.3017680808227500E-002
  0.16311038259936633     
 -0.12411445297953481     
 -0.22016823178244951     
  -1.4932516508061549E-002
  -2.4833057789861463E-003
   3.0377496547620075E-002
   5.5100642289118602E-002
   4.3035078889725631E-002
  -2.0918427219373828E-002
 -0.12792509891030393     
 -0.24601768163592205     
 -0.43881168686695893     
  -7.8663987914138978E-002
  0.17059269904717106     
  0.12532199597698832     
  -7.7200868099297881E-002
  -4.0694107369822263E-002
  0.14587557991144576     
  0.19154451268542722     
  0.24353160429795939     
   4.1005334982881864E-002
  0.31758723409704825     
  0.30318980787679412     
  -6.1786729429192111E-002
  0.23310596659996152     
  -4.5801263452809743E-003
   9.5391994472226183E-003
  -8.2038362693419520E-002
 -0.12595177661119289     
  -8.4239247613094537E-002
   3.6674801178839672E-003
 -0.13839931070172495     
  -5.5967515078150259E-002
   2.9178435085252752E-002
  0.11422888488987877     
  0.17161558973896571     
  0.17846891289130545     
  0.12289811166103505     
   1.0518596682990697E-002
 -0.16389788021257190     
 -0.24245728315241111     
   4.5567205797568844E-002
 -0.17972773952553980     
 -0.24122069223820247     
 -0.21890553786793657     
  0.28052981919740722     
 -0.35402269777983231     
  -7.6698771933292054E-002
 -0.18611173682801058     
  0.16554277980438187     
  -1.7242048575182242E-002
 -0.23520754790285578     
   2.3118272825678188E-002
  -9.7436602134581801E-002
 -0.12661362311319507     
  -1.1118168589603517E-002
 -0.24466339212379079     
   6.4837186361200033E-002
 -0.30362513725722207     
  0.12445995118133983     
 -0.29651359443675851     
 -0.23797217580986227     
  0.13337387377797691     
 -0.39240574190249145     
   2.9085557622092164E-002
   7.5225549646609963E-002
 -0.63134757692477961     
  0.12326755683968921     
  0.15773720572956285     
 -0.16804115893457919     
 -0.15191624340171592     
 -0.23058374372876497     
 -0.52433045512043841     
 -0.41948718254815548     
 -0.39985580003025345     
 -0.40557100579926081     
 -0.32969662454936777     
 -0.39828753322480814     
  0.42113691019341870     
 -0.12227857698135809     
 -0.46715044664020322     
 -0.13930080779384946     
 -0.36351301562708266     
 -0.15985261469341333     
 -0.24853027937986305     
 -0.15504707383680050     
 -0.12321699029465916     
 -0.16273006099116066     
 -0.30088573090874404     
 -0.27773986845113968     
  0.17904055830404991     
 -0.42200715930812083     
 -0.58059787960260523     
 -0.67301930359431950     
  -9.0903955420226168E-002
 -0.19835560419326273     
  -7.4070058052147433E-002
 -0.11963427803092386     
 -0.36342472415963256     
 -0.19137265040848275     
 -0.25485540528513417     
  -4.7502709436041943E-002
 -0.50815661809793067     
 -0.39940803176908901     
 -0.37384276157905744     
 -0.24368459081837765     
 -0.51944905703641675     
 -0.55244464037597674     
   6.3418760987435782E-003
 -0.43056763044989715     
   6.9339264138565809E-003
 -0.10200617164673038     
 -0.29286645970086378     
 -0.49847132502424296     
 -0.61837150297973786     
  -3.3521117005447113E-003
   1.0093153737190224     
  0.23221915460028159     
 -0.22069157210329302     
  0.11900785506623804     
  0.12352209821559612     
  0.27591417578931909     
  0.35137389849090972     
  0.11329341741844312     
  0.16463268431751746     
 -0.15327656648719695     
  -1.8732018590621624E-002
   2.8796189480890647E-002
 -0.43897678709658050     
  0.16748885496740862     
 -0.61129569068450806     
  0.21115074925909186     
  0.11131847186286813     
  -4.6582742581726150E-002
 -0.23524536302285204     
 -0.56306735626181548     
 -0.60464999546105080     
  0.24617344125996427     
  -3.3296224875173169E-002
   5.5906807340819709E-002
  0.12442620914820980     
  0.16304198857447069     
  0.49322408341062318     
  0.34696053437822294     
  0.31850745050991258     
  0.28427819520277653     
  0.20031154386346700     
  0.32484773948751433     
  0.40579736590777915     
  0.40239996901785657     
 -0.16366005557025082     
  0.33870802934271449     
 -0.30825402725975282     
  0.26225432629626549     
  0.22020641594241719     
  0.22405347730428854     
  0.23268388958384811     
   3.0951961188924404E-002
  0.75222191886624212     
  0.30637692420804102     
  0.38947297997826352     
  0.48779436265678378     
  0.25869677290643700     
  0.50855801750106999     
  0.52214480794515739     
  0.46639491247872944     
  0.45266588631771087     
  0.65871186793908632     
  0.33726117134752703     
  0.64869930094105088     
  0.36194702637918208     
  0.26167486794649092     
  0.42650624462811104     
  0.69655552049904879     
  0.94152608089270440     
  0.82297025381897293     
  0.44554405584950385     
   1.3899127956095412     
   1.1800345419631224     
   1.3023747624545803     
  0.92648436489397468     
   1.3443455265772817     
   1.4850506228711176     
   1.3047554712480578     
  0.86040083281315105     
   1.3641349136464536     
   1.3672562997021571     
   1.0973533441234196     
   1.0573745526654490     
   1.0115460427688432     
   1.2341209140066334     
   1.1809061745181249     
  0.85248741720165699     
  0.75799734669021568     
  0.59745419127535038     
  0.66277541300413423     
  0.25725101502449116     
  0.35905744781511928     
  -5.6662753354824597E-003
  -2.6829377743606133E-002
  -1.6656932634837452E-003
  -2.3965050250008467E-008
  -3.2506447742261834E-008
  -0.0000000000000000     
  -9.7458528331225945E-003
   4.4314230710322505E-002
   3.0785001909222561E-002
   1.9207167582252598E-002
   2.9589911413504437E-003
   3.9211232326493407E-002
  -1.3835763449749463E-002
   2.0671328205963412E-002
   1.3986284765499696E-002
   6.0803386567745317E-003
   2.0551897093022804E-002
   2.0212997248857778E-002
   1.7791244519196572E-002
   2.8725072213067047E-002
   1.0534424107548748E-002
   3.0356727634689638E-002
   4.6937275650959717E-002
   5.0941520979851031E-002
   5.9195326035913444E-003
  -3.0317776168887161E-003
  -2.3092315910557437E-002
   1.1727250647409735E-002
  -1.0411156399437009E-002
   4.7407904777974665E-002
  -3.8776374579829118E-002
   1.6391931253966659E-003
   7.9043708893167790E-003
   1.2633915368428957E-002
   1.5698793416044309E-002
  -8.8234326990741588E-003
  -4.7458157020650567E-003
   9.2217276999507439E-004
   7.1359082183831777E-003
   1.2839709143004276E-002
   9.7316236769981728E-004
   1.5624025783752422E-002
   1.9711907075119092E-002
   1.7180195088450978E-002
   1.6727418097556179E-002
   1.7415572074518007E-002
  -2.0605937085199255E-002
   1.7575443183908215E-002
   1.7161003243410973E-002
  -1.0495181976957049E-002
  -9.2940034400854354E-003
  -5.1557828788158025E-003
   1.9745069903321297E-003
  -4.2937018208075665E-003
  -9.8310936759916680E-003
  -1.3662700833614325E-002
  -1.5113560306888485E-002
   4.5227870166102961E-002
   1.6521127913223604E-002
   2.7887538461656845E-002
   3.8658103161994806E-002
   3.6024885777420870E-002
   3.8274299944831197E-002
   5.0162335437598668E-002
   5.9092263017504910E-003
   5.4182787836274402E-003
   4.4801363804947902E-003
   4.5578820277225205E-003
   5.7334453583272422E-003
  -1.5868251312332583E-002
  -2.0324515865075190E-002
  -2.7248233795436498E-002
  -2.2962177156877504E-002
  -1.8658072828580063E-002
  -1.5509040385364504E-002
  -1.3502047387349654E-002
   1.0337750802510762E-002
   8.7397025421663225E-003
   6.9918629842582580E-003
   4.5959141165183431E-003
  -3.9990484677046197E-003
  -2.0631649214102103E-002
  -9.9164769458284611E-003
  -1.5782798514767354E-002
  -2.0391023853435171E-002
   7.3074608781864992E-004
  -2.2854226421118340E-002
  -1.7979147850993070E-003
  -2.2794336753021505E-002
  -5.2684232712473973E-003
  -9.9682154592969727E-003
  -1.2451331711744756E-002
  -9.8746436638206606E-003
  -1.5601722642272111E-002
  -2.6798733964815435E-003
  -2.1074181236374195E-002
   5.5486998462466065E-003
  -2.5064289730929147E-002
   1.4736506784899442E-002
  -2.6628581064932738E-002
   2.4588684232128736E-002
  -2.5438208811763303E-002
   3.4334691704075423E-002
  -2.1828361496672548E-002
   4.2588452078004581E-002
  -1.6550601151484379E-002
  -5.9465853799411952E-002
   4.7126693658299648E-002
  -4.0013178115249973E-003
   2.3903114355638025E-003
   8.8681991339927217E-003
   1.5758273711084243E-002
  -5.2762234839854968E-002
   2.3127194915763514E-002
  -1.2273344151420350E-002
  -1.3842557689772770E-002
  -4.8554630285237266E-002
  0.13930458394956197     
   9.7114125485307984E-002
  -5.0004708230630912E-002
  -2.4528347708242745E-002
   5.9141370586183583E-004
  -1.3371868206074347E-002
  -2.0744876691805362E-002
  -2.6621992516963955E-002
  -1.8837521034752499E-002
  -1.1637499588375720E-002
   1.0805680380402589E-002
  -2.9964428464803256E-002
  -2.9882411799116881E-002
  -1.8259137300694651E-002
  -1.8934945191033448E-002
  -2.0711339608709821E-002
  -2.3861337567220350E-002
  -5.8350525756446494E-003
  -2.7266436590019687E-002
   5.0100616492330229E-003
  -2.9256121497546243E-002
   7.0611657238449366E-003
  -2.8474993156926552E-002
   6.9958067479399767E-003
  -1.7940746043453561E-002
  -9.7811751227798362E-003
  -1.4835737797313734E-003
   5.4381011376842528E-003
   9.7497294603213699E-003
   1.0768518691884714E-002
   8.4455748843945896E-003
   3.4735082616981147E-003
  -2.7668501291896711E-003
  -8.5127973622086649E-003
  -6.1044732092569012E-002
  -6.7286523348575364E-002
  -4.8909835462223522E-002
  -4.7384343426406399E-002
  -7.3285662684454217E-002
  -5.9341073801598719E-002
   3.1226830641888179E-002
   1.7491137319500433E-002
   2.1037912657964626E-002
   2.0279051404923417E-002
   1.1272908119667982E-002
   1.6165876289392280E-002
   4.7736293937293631E-003
  -2.1384337512919557E-002
  -1.9486076162960508E-002
  -1.9399236857215889E-002
  -2.0353129611982969E-002
   3.6858225420107166E-002
  -1.4441780526404172E-002
  -7.6532748038728293E-003
  -1.6527832704099011E-002
   6.1285178294484544E-004
  -1.4406947884440960E-002
   8.9523455463581293E-003
  -1.3814016217010464E-002
   1.5919733396920290E-002
  -1.3130208003102890E-002
  -1.1025096414105963E-002
  -6.0531251078177153E-002
  -6.7445382740279735E-003
   9.4105454842621523E-003
  -2.8036961167299777E-004
  -2.6610581546001387E-003
   7.3942475862066818E-003
  -1.7163303489608171E-002
   1.4856605867317560E-002
  -3.1739106559892885E-002
   2.0870066642068235E-002
  -4.3710169430582660E-002
   2.4476570227076631E-002
  -5.0985046226050962E-002
   2.4871853637354613E-002
   2.1374518248806727E-002
   1.3533717147589008E-002
   1.3167012329800567E-003
  -1.4496129500384505E-002
  -3.2034104675707581E-002
  -6.6570039275534759E-002
  -7.6213298443497807E-002
   2.8754265366523528E-002
   4.5693498769277261E-003
   2.6464958545633108E-002
   2.8644326619975995E-002
   3.2720047182603046E-002
   3.6563924305364759E-002
  -7.5261377889554873E-003
  -1.1716263497418338E-003
   2.5476784334715636E-003
   7.0465233503751116E-003
   2.1794097845968006E-002
   2.6222355379515006E-002
  -1.2547807720905968E-003
   2.8579053228432412E-002
   1.6029489157539399E-002
   1.9356588851491361E-002
   2.1929191097137393E-002
   2.4004244468923706E-002
   1.4738485793697133E-002
   2.8458942340007013E-002
  -8.6521166458207403E-003
   3.1149971074427213E-002
  -2.4542346440377671E-002
  -4.2082568755186400E-002
   2.4279115015363215E-002
   1.8218591916737983E-002
  -8.0512975199322240E-002
   1.0632065722831145E-002
   1.3294694374860888E-003
  -9.9194649336311769E-003
  -3.7702884212132970E-002
  -4.8911718717105868E-002
  -4.7946833890820911E-002
   6.0535289227700234E-003
  -3.0789814136750582E-002
  -2.2360635290023707E-002
  -1.3429894300832482E-002
   2.5595463459840262E-002
   3.1979814042455236E-002
   2.6565743830150056E-002
   2.9453924163296848E-002
   3.0308391375316580E-002
   3.4698351635502493E-002
   3.2478433879502021E-002
   3.5014889364096538E-002
   2.5581199227093683E-002
   3.4889506898534942E-002
   1.6250443417311428E-002
   3.5279933646735352E-002
   6.0574944534760190E-003
   3.6678974802987006E-002
  -3.9620827803324970E-003
   3.7654239249154009E-002
   3.6164839621171549E-002
   4.8727588298819270E-002
   3.0992649386179235E-002
  -3.8590520406011020E-002
   2.2224609230894175E-002
  -4.5573964682614383E-002
   1.1003583953803204E-002
  -5.1672578129400681E-002
  -9.7587343602400026E-004
  -5.6655173603196982E-002
  -1.2272692380807018E-002
  -2.2235923427747561E-002
  -3.0833421117102473E-002
  -3.8058007540486674E-002
  -4.3711721023782818E-002
  -3.1606042580901106E-002
  -1.8647953834606566E-002
  -2.5969562394845810E-002
  -5.0275370054910902E-002
  -5.2564623876243527E-002
  -4.2315572477677664E-002
  -3.5197720271883760E-002
  -4.1927826954341205E-002
  -4.1097113027303220E-002
  -3.5507577904256064E-002
  -2.5752578114282106E-002
  -1.4113004413424897E-002
   3.5314370550423191E-002
   3.8229529097825211E-002
   4.0571407129461820E-002
   3.3391593207735965E-002
   3.1766743460285227E-002
   2.8473411084408356E-002
   2.1898654415909099E-002
   3.7461486284138631E-002
   1.1589975324903454E-002
   3.2619272161490132E-002
  -1.4382982287592383E-002
  -2.5936097247328101E-002
   2.1501513153213008E-002
   1.4570164347845686E-002
  -4.7714850172092441E-002
   4.0208609673347134E-003
  -5.1376464497554841E-002
  -8.7145916434218235E-003
  -2.1153615524468553E-002
  -4.4015791986057547E-002
  -3.1391477878849959E-002
  -3.4543564969730919E-002
  -2.4194629800279574E-002
  -4.3731263857253254E-002
  -4.7050128644158334E-002
  -4.9255302935372981E-002
  -4.8076100940648396E-002
  -4.2011800420236771E-002
  -1.6359404195488595E-002
  -1.4362504692795012E-002
  -2.3801576583449457E-002
  -2.6698700026278506E-002
  -6.7499363468990811E-002
   9.8066099803883981E-003
   2.3895023600844299E-002
   1.6014575978963538E-002
   4.0632970352289556E-003
  -3.5656702451069798E-003
   8.8657021962369534E-003
   1.1433884943840133E-003
  -5.3815770686503443E-003
  -3.9108582131141073E-002
  -1.3385320851834238E-002
  -3.4614251304601808E-002
  -2.3902667104240730E-002
  -3.0192722707966871E-002
  -3.5000140189037479E-002
  -4.3442304334961490E-002
  -4.6486192342864018E-002
  -2.0250927658806050E-002
  -4.3455905131812023E-002
  -4.8170600325950531E-003
  -3.5793754325030104E-002
  -8.4124622956492645E-003
  -2.5510764856071328E-003
   1.8161878369868500E-003
   9.1042967838844718E-002
   6.9653761226065786E-002
   6.7615081890202280E-002
   4.0926266753946013E-002
   4.3402267486154458E-002
  -4.1879477321716596E-002
  -3.1109269521217477E-002
  -5.2782438491857653E-002
  -5.9798160016125056E-002
  -5.9106523004691311E-002
  -4.9502170776104346E-002
  -3.2760786429540008E-002
  -4.9342104289846297E-002
   7.8403361492295418E-003
   2.5866430785800452E-002
  -6.5940366053790167E-002
   5.3023380540052976E-002
  -5.4223621718893722E-002
   6.2060199829138851E-002
  -3.4043402950601175E-002
  -9.4965793669588294E-003
   1.5140663255264884E-002
   3.7329779411866520E-002
   5.6473801813612251E-002
   7.2943249920525671E-002
   8.6764311157915774E-002
  0.10237662786871304     
  0.14393453257619521     
  0.12416646230295958     
   6.3891041362915971E-002
   8.2744946207101835E-002
  0.10273653160308457     
   5.9424509636478370E-002
   7.4131351156566494E-002
  0.11321602127251983     
   5.0334153997847825E-002
   5.4479618896497065E-002
   3.0807709147066223E-002
   2.2358479885880189E-002