# vtk DataFile Version 3.1
Mesh with Data
ASCII
DATASET UNSTRUCTURED_GRID
POINTS         7552 float
      0.200000E+03      0.000000E+00      0.200000E+03
      0.000000E+00      0.000000E+00      0.200000E+03
      0.197500E+03      0.000000E+00      0.200000E+03
      0.195000E+03      0.000000E+00      0.200000E+03
      0.192500E+03      0.000000E+00      0.200000E+03
      0.190000E+03      0.000000E+00      0.200000E+03
      0.187500E+03      0.000000E+00      0.200000E+03
      0.185000E+03      0.000000E+00      0.200000E+03
      0.182500E+03      0.000000E+00      0.200000E+03
      0.180000E+03      0.000000E+00      0.200000E+03
      0.177500E+03      0.000000E+00      0.200000E+03
      0.175000E+03      0.000000E+00      0.200000E+03
      0.172500E+03      0.000000E+00      0.200000E+03
      0.170000E+03      0.000000E+00      0.200000E+03
      0.167500E+03      0.000000E+00      0.200000E+03
      0.165000E+03      0.000000E+00      0.200000E+03
      0.162500E+03      0.000000E+00      0.200000E+03
      0.160000E+03      0.000000E+00      0.200000E+03
      0.157500E+03      0.000000E+00      0.200000E+03
      0.155000E+03      0.000000E+00      0.200000E+03
      0.152500E+03      0.000000E+00      0.200000E+03
      0.150000E+03      0.000000E+00      0.200000E+03
      0.147500E+03      0.000000E+00      0.200000E+03
      0.145000E+03      0.000000E+00      0.200000E+03
      0.142500E+03      0.000000E+00      0.200000E+03
      0.140000E+03      0.000000E+00      0.200000E+03
      0.137500E+03      0.000000E+00      0.200000E+03
      0.135000E+03      0.000000E+00      0.200000E+03
      0.132500E+03      0.000000E+00      0.200000E+03
      0.130000E+03      0.000000E+00      0.200000E+03
      0.127500E+03      0.000000E+00      0.200000E+03
      0.125000E+03      0.000000E+00      0.200000E+03
      0.122500E+03      0.000000E+00      0.200000E+03
      0.120000E+03      0.000000E+00      0.200000E+03
      0.117500E+03      0.000000E+00      0.200000E+03
      0.115000E+03      0.000000E+00      0.200000E+03
      0.112500E+03      0.000000E+00      0.200000E+03
      0.110000E+03      0.000000E+00      0.200000E+03
      0.107500E+03      0.000000E+00      0.200000E+03
      0.105000E+03      0.000000E+00      0.200000E+03
      0.102500E+03      0.000000E+00      0.200000E+03
      0.100000E+03      0.000000E+00      0.200000E+03
      0.975000E+02      0.000000E+00      0.200000E+03
      0.950000E+02      0.000000E+00      0.200000E+03
      0.925000E+02      0.000000E+00      0.200000E+03
      0.900000E+02      0.000000E+00      0.200000E+03
      0.875000E+02      0.000000E+00      0.200000E+03
      0.850000E+02      0.000000E+00      0.200000E+03
      0.825000E+02      0.000000E+00      0.200000E+03
      0.800000E+02      0.000000E+00      0.200000E+03
      0.775000E+02      0.000000E+00      0.200000E+03
      0.750000E+02      0.000000E+00      0.200000E+03
      0.725000E+02      0.000000E+00      0.200000E+03
      0.700000E+02      0.000000E+00      0.200000E+03
      0.675000E+02      0.000000E+00      0.200000E+03
      0.650000E+02      0.000000E+00      0.200000E+03
      0.625000E+02      0.000000E+00      0.200000E+03
      0.600000E+02      0.000000E+00      0.200000E+03
      0.575000E+02      0.000000E+00      0.200000E+03
      0.550000E+02      0.000000E+00      0.200000E+03
      0.525000E+02      0.000000E+00      0.200000E+03
      0.500000E+02      0.000000E+00      0.200000E+03
      0.475000E+02      0.000000E+00      0.200000E+03
      0.450000E+02      0.000000E+00      0.200000E+03
      0.425000E+02      0.000000E+00      0.200000E+03
      0.400000E+02      0.000000E+00      0.200000E+03
      0.375000E+02      0.000000E+00      0.200000E+03
      0.350000E+02      0.000000E+00      0.200000E+03
      0.325000E+02      0.000000E+00      0.200000E+03
      0.300000E+02      0.000000E+00      0.200000E+03
      0.275000E+02      0.000000E+00      0.200000E+03
      0.250000E+02      0.000000E+00      0.200000E+03
      0.225000E+02      0.000000E+00      0.200000E+03
      0.200000E+02      0.000000E+00      0.200000E+03
      0.175000E+02      0.000000E+00      0.200000E+03
      0.150000E+02      0.000000E+00      0.200000E+03
      0.125000E+02      0.000000E+00      0.200000E+03
      0.100000E+02      0.000000E+00      0.200000E+03
      0.750000E+01      0.000000E+00      0.200000E+03
      0.500000E+01      0.000000E+00      0.200000E+03
      0.250000E+01      0.000000E+00      0.200000E+03
      0.000000E+00      0.000000E+00      0.000000E+00
      0.000000E+00      0.000000E+00      0.197500E+03
      0.000000E+00      0.000000E+00      0.195000E+03
      0.000000E+00      0.000000E+00      0.192500E+03
      0.000000E+00      0.000000E+00      0.190000E+03
      0.000000E+00      0.000000E+00      0.187500E+03
      0.000000E+00      0.000000E+00      0.185000E+03
      0.000000E+00      0.000000E+00      0.182500E+03
      0.000000E+00      0.000000E+00      0.180000E+03
      0.000000E+00      0.000000E+00      0.177500E+03
      0.000000E+00      0.000000E+00      0.175000E+03
      0.000000E+00      0.000000E+00      0.172500E+03
      0.000000E+00      0.000000E+00      0.170000E+03
      0.000000E+00      0.000000E+00      0.167500E+03
      0.000000E+00      0.000000E+00      0.165000E+03
      0.000000E+00      0.000000E+00      0.162500E+03
      0.000000E+00      0.000000E+00      0.160000E+03
      0.000000E+00      0.000000E+00      0.157500E+03
      0.000000E+00      0.000000E+00      0.155000E+03
      0.000000E+00      0.000000E+00      0.152500E+03
      0.000000E+00      0.000000E+00      0.150000E+03
      0.000000E+00      0.000000E+00      0.147500E+03
      0.000000E+00      0.000000E+00      0.145000E+03
      0.000000E+00      0.000000E+00      0.142500E+03
      0.000000E+00      0.000000E+00      0.140000E+03
      0.000000E+00      0.000000E+00      0.137500E+03
      0.000000E+00      0.000000E+00      0.135000E+03
      0.000000E+00      0.000000E+00      0.132500E+03
      0.000000E+00      0.000000E+00      0.130000E+03
      0.000000E+00      0.000000E+00      0.127500E+03
      0.000000E+00      0.000000E+00      0.125000E+03
      0.000000E+00      0.000000E+00      0.122500E+03
      0.000000E+00      0.000000E+00      0.120000E+03
      0.000000E+00      0.000000E+00      0.117500E+03
      0.000000E+00      0.000000E+00      0.115000E+03
      0.000000E+00      0.000000E+00      0.112500E+03
      0.000000E+00      0.000000E+00      0.110000E+03
      0.000000E+00      0.000000E+00      0.107500E+03
      0.000000E+00      0.000000E+00      0.105000E+03
      0.000000E+00      0.000000E+00      0.102500E+03
      0.000000E+00      0.000000E+00      0.100000E+03
      0.000000E+00      0.000000E+00      0.975000E+02
      0.000000E+00      0.000000E+00      0.950000E+02
      0.000000E+00      0.000000E+00      0.925000E+02
      0.000000E+00      0.000000E+00      0.900000E+02
      0.000000E+00      0.000000E+00      0.875000E+02
      0.000000E+00      0.000000E+00      0.850000E+02
      0.000000E+00      0.000000E+00      0.825000E+02
      0.000000E+00      0.000000E+00      0.800000E+02
      0.000000E+00      0.000000E+00      0.775000E+02
      0.000000E+00      0.000000E+00      0.750000E+02
      0.000000E+00      0.000000E+00      0.725000E+02
      0.000000E+00      0.000000E+00      0.700000E+02
      0.000000E+00      0.000000E+00      0.675000E+02
      0.000000E+00      0.000000E+00      0.650000E+02
      0.000000E+00      0.000000E+00      0.625000E+02
      0.000000E+00      0.000000E+00      0.600000E+02
      0.000000E+00      0.000000E+00      0.575000E+02
      0.000000E+00      0.000000E+00      0.550000E+02
      0.000000E+00      0.000000E+00      0.525000E+02
      0.000000E+00      0.000000E+00      0.500000E+02
      0.000000E+00      0.000000E+00      0.475000E+02
      0.000000E+00      0.000000E+00      0.450000E+02
      0.000000E+00      0.000000E+00      0.425000E+02
      0.000000E+00      0.000000E+00      0.400000E+02
      0.000000E+00      0.000000E+00      0.375000E+02
      0.000000E+00      0.000000E+00      0.350000E+02
      0.000000E+00      0.000000E+00      0.325000E+02
      0.000000E+00      0.000000E+00      0.300000E+02
      0.000000E+00      0.000000E+00      0.275000E+02
      0.000000E+00      0.000000E+00      0.250000E+02
      0.000000E+00      0.000000E+00      0.225000E+02
      0.000000E+00      0.000000E+00      0.200000E+02
      0.000000E+00      0.000000E+00      0.175000E+02
      0.000000E+00      0.000000E+00      0.150000E+02
      0.000000E+00      0.000000E+00      0.125000E+02
      0.000000E+00      0.000000E+00      0.100000E+02
      0.000000E+00      0.000000E+00      0.750000E+01
      0.000000E+00      0.000000E+00      0.500000E+01
      0.000000E+00      0.000000E+00      0.250000E+01
      0.200000E+03      0.000000E+00      0.000000E+00
      0.250000E+01      0.000000E+00      0.000000E+00
      0.500000E+01      0.000000E+00      0.000000E+00
      0.750000E+01      0.000000E+00      0.000000E+00
      0.100000E+02      0.000000E+00      0.000000E+00
      0.125000E+02      0.000000E+00      0.000000E+00
      0.150000E+02      0.000000E+00      0.000000E+00
      0.175000E+02      0.000000E+00      0.000000E+00
      0.200000E+02      0.000000E+00      0.000000E+00
      0.225000E+02      0.000000E+00      0.000000E+00
      0.250000E+02      0.000000E+00      0.000000E+00
      0.275000E+02      0.000000E+00      0.000000E+00
      0.300000E+02      0.000000E+00      0.000000E+00
      0.325000E+02      0.000000E+00      0.000000E+00
      0.350000E+02      0.000000E+00      0.000000E+00
      0.375000E+02      0.000000E+00      0.000000E+00
      0.400000E+02      0.000000E+00      0.000000E+00
      0.425000E+02      0.000000E+00      0.000000E+00
      0.450000E+02      0.000000E+00      0.000000E+00
[...]
CELL_DATA        14782
SCALARS model_vp float
LOOKUP_TABLE default
   1099.9520487577038     
   1100.1013970376089     
   1100.0485280881310     
   1099.9528827304716     
   1099.9296777969500     
   1100.0631729854970     
   1100.0173905873066     
   1100.0610915630537     
   1100.0444640168578     
   1100.0201452947231     
   1099.9750563418063     
   1099.9761376235358     
   1099.9735149821738     
   1099.9741724961043     
   1099.9727668379703     
   1099.9515876512287     
   1100.0292824026267     
   1100.0252011608316     
   1099.9805254658511     
   1099.9670704286661     
   1099.9770006589624     
   1099.9855699127600     
   1099.9755593075381     
   1099.9738393991863     
   1099.9684605998366     
   1099.9753267426083     
   1099.9945169915193     
   1099.9775377040380     
   1099.9710037727900     
   1099.9674148939325     
   1099.9733697835798     
   1099.9913795459506     
   1100.0429165459191     
   1100.0601600990992     
   1100.1462748855872     
   1100.0667233058552     
   1100.1570675270557     
   1100.1686975043233     
   1100.1703936029803     
   1100.0299186938594     
   1099.9529607736222     
   1099.9521046846880     
   1099.9674321060181     
   1099.9954295788793     
   1099.9800958331089     
   1099.9664470010689     
   1099.9668767933956     
   1099.9859749674451     
   1099.9761853131206     
   1099.9615725536930     
   1100.1995296970808     
   1100.0051477542079     
   1099.9908180205919     
   1100.0320211058479     
   1099.9791469165332     
   1100.0500018473010     
   1099.9665561348540     
   1100.0535401695890     
   1099.9623796321341     
   1100.0452048678983     
   1099.9732795583295     
   1099.9975276676548     
   1099.9277735675266     
   1100.0734914723212     
   1100.0440686975678     
   1100.1113656968280     
   1100.0466503136922     
   1100.1475122239128     
   1100.0343096201282     
   1100.0163750376412     
   1100.0273838915070     
   1099.7656208375186     
   1100.1341054067468     
   1100.1529310588753     
   1100.0334857444848     
   1100.0100727320541     
   1099.9267254148303     
   1099.9570753187943     
   1100.0394212817050     
   1100.0163262121519     
   1099.9492811619677     
   1099.9666759510103     
   1099.9515772004261     
   1099.9554929989006     
   1099.9852813278926     
   1099.9671112407598     
   1100.1169176459275     
   1100.0428614685613     
   1100.0251648175008     
   1099.9813819972178     
   1100.0154673516045     
   1100.0425622973817     
   1099.7357713604952     
   1099.9666746654257     
   1099.9872239235731     
   1099.9956260895319     
   1099.9609196751605     
   1099.9914641032235     
   1100.0570113798042     
   1099.9383860370938     
   1099.9317247926992     
   1099.9362545557540     
   1099.9444435202154     
   1099.9607613828919     
   1099.9760432636542     
   1099.7294824459971     
   1099.9672807165816     
   1099.9698532065265     
   1100.0605555300283     
   1100.0610925900896     
   1099.9797947319357     
   1100.0395834427070     
   1099.9790033213003     
   1100.0219469508161     
   1100.0768537813037     
   1099.9496100421723     
   1100.0198246469056     
   1099.9793094245060     
   1099.9736097006453     
   1100.0276637220659     
   1099.9402863240466     
   1100.0747031887938     
   1099.9272258373223     
   1100.0978485786150     
   1100.0851056224610     
   1099.9111655190582     
   1100.0426213944404     
   1099.8800478765363     
   1099.9907374775785     
   1099.8464857029942     
   1099.8306398304683     
   1099.9366378926795     
   1099.9407346635423     
   1100.0469249788882     
   1099.9457644723213     
   1099.9322459542268     
   1099.8918673705145     
   1099.8340912334318     
   1099.7831334748212     
   1099.9576786548087     
   1099.6841414272817     
   1100.0127311784856     
   1100.0841969997309     
   1100.1178087406263     
   1100.1092496490571     
   1100.1665510976397     
   1100.0360881233944     
   1100.0993223724704     
   1100.1321174178408     
   1100.1037470710182     
   1100.2175681649387     
   1100.1444469083522     
   1100.1424997187219     
   1100.0435827752719     
   1099.6370934424713     
   1099.9820819166266     
   1100.1164175482761     
   1099.9591253711233     
   1100.1713710384374     
   1099.9969503506111     
   1100.1291393986180     
   1100.0126695141153     
   1100.0604905249043     
   1099.9929346926785     
   1099.9975862034748     
   1100.0857296841987     
   1099.8361326606716     
   1099.7426206206053     
   1099.9772029746298     
   1100.0130415353967     
   1100.0468252532924     
   1100.0502608409763     
   1100.0071277888442     
   1099.9202988253999     
   1099.8119526235280     
   1099.7161216778904     
   1099.8128489818514     
   1100.0559212860660     
   1100.0957831606511     
   1100.1114968400500     
   1099.9684074607665     
   1099.9684827164742     
   1100.0994848288212     
   1100.2116611872625     
   1100.1781493257897     
   1100.0177673129351     
   1100.2091035628180     
   1100.2332606344669     
   1100.0095389817993     
   1100.1951933887506     
   1100.0662070555370     
   1100.0196717751921     
   1099.9594010096550     
   1099.9518835908889     
   1099.9572241450653     
   1099.9165245533345     
   1099.8157198767574     
   1100.0526089079699     
   1100.1057344093310     
   1100.1309929019346     
   1100.1225865759475     
   1100.0841385613467     
   1100.0216862322031     
   1099.9414987892033     
   1099.9180990292764     
   1099.7871256130675     
   1100.1083595291307     
   1099.9976642305669     
   1099.8952657305379     
   1099.9510137386160     
   1100.2479797360152     
   1099.8212827419572     
   1100.0033607253051     
   1099.9191013142840     
   1100.2135700848019     
   1099.9520836187239     
   1099.9310214833622     
   1100.1129601711662     
   1100.0579839131663     
   1099.9872965944892     
   1100.0884398802539     
   1099.8890328569232     
   1100.0905396529547     
   1099.8553121239074     
   1100.0836888826025     
   1099.8895153021863     
   1099.9615637140234     
   1100.0932821472611     
   1099.7525404539526     
   1100.0278929599399     
   1100.0321517451689     
   1099.5251908316657     
   1100.0726151953377     
   1100.1289514300918     
   1099.8534988755723     
   1100.0095120867506     
   1099.9677841245327     
   1099.6388050997709     
   1099.7624623792769     
   1099.7318063030000     
   1099.7902762961021     
   1099.8772489721857     
   1099.7898331373381     
   1100.2087021014502     
   1099.9828034038999     
   1099.7151563900559     
   1099.9121903834443     
   1099.8285893778259     
   1099.8617965374290     
   1099.9360191374474     
   1099.9961929573674     
   1099.9756495467479     
   1099.8876872776348     
   1099.7428913915880     
   1099.8011600799509     
   1100.2165469879612     
   1099.6688057609117     
   1099.6952846510287     
   1099.5910133420398     
   1099.9646946323842     
   1099.7781920260886     
   1099.9201559727635     
   1099.9755528491878     
   1099.6316000924769     
   1099.7902149714043     
   1099.8685856751945     
   1099.9972571153548     
   1099.5986492763284     
   1099.6896581653943     
   1099.6375584909440     
   1099.8361873540282     
   1099.5687977512225     
   1099.6175273353424     
   1100.0133195592352     
   1099.7842758792253     
   1099.9587995352306     
   1099.8240111897005     
   1099.6652322223310     
   1099.5482463292012     
   1099.6186136067897     
   1099.9974949079060     
   1100.8350000373528     
   1100.0806013843840     
   1099.6811673878663     
   1099.9452749096531     
   1099.9750160192225     
   1100.1306252131908     
   1100.1768983383547     
   1100.0464963848119     
   1100.0396510623050     
   1099.7778727273892     
   1099.8092828635008     
   1099.9547005275463     
   1099.5932433825840     
   1100.0686734081967     
   1099.5601377989358     
   1100.0031807171040     
   1099.8857799436717     
   1099.7797471623308     
   1099.7091865111447     
   1099.6484724352129     
   1099.6588157288440     
   1100.0442521918001     
   1100.0056208114552     
   1099.9737432295055     
   1099.9266309659520     
   1099.9856368395767     
   1100.3309790561532     
   1100.1170520196088     
   1100.0729362826496     
   1100.0097731227468     
   1099.9318330080334     
   1100.1659052018040     
   1100.2344241320313     
   1100.1834826696293     
   1099.9641463602329     
   1100.0693875069360     
   1099.8550233000826     
   1099.9816181260435     
   1099.9871044196632     
   1100.0827426817029     
   1100.1921860716991     
   1100.1089949657933     
   1100.6697714122326     
   1100.1357092120447     
   1100.2224620165043     
   1100.3472040032775     
   1100.0293492274691     
   1100.3923277101308     
   1100.4022795468040     
   1100.3589301766674     
   1100.2874403226813     
   1100.5828459289739     
   1100.1310239969939     
   1100.5443618787037     
   1100.2488012490635     
   1100.1100429793667     
   1100.3317344447719     
   1100.6195051582517     
   1100.8287791409061     
   1100.6073633533563     
   1100.2374222734181     
   1101.0785450466954     
   1101.0155115883199     
   1100.9020505236053     
   1100.5350790122554     
   1101.0731000942455     
   1101.0593925147712     
   1100.8261592360464     
   1100.4401998972116     
   1100.8247883483805     
   1100.9018893355178     
   1100.8234438050333     
   1100.5718137932222     
   1100.6582999249267     
   1100.7364492504728     
   1100.6684720662436     
   1100.4310423522345     
   1100.3882965779480     
   1100.2547764827134     
   1100.3516521030635     
   1100.0728618685284     
   1100.1824218143931     
   1099.9947614852360     
   1099.9735652165850     
   1099.9992369344204     
   1099.9999999884203     
   1099.9999999787792     
   1100.0000000000000     
   1099.9936056593181     
   1100.0386089113288     
   1100.0248695525672     
   1100.0117928691400     
   1099.9968379828206     
   1100.0327023885018     
   1099.9899009197866     
   1100.0164199199041     
   1100.0207936817164     
   1100.0141216102243     
   1100.0116269670318     
   1100.0120729468633     
   1100.0112127545235     
   1100.0090648142341     
   1100.0084596812635     
   1100.0208905136585     
   1100.0379885732784     
   1100.0427453529535     
   1100.0054685826965     
   1099.9988324781757     
   1099.9814639347933     
   1099.9970070613119     
   1099.9959690934704     
   1100.0345537483777     
   1099.9588986255710     
   1100.0016795700437     
   1099.9990894582068     
   1100.0030026588472     
   1100.0060922664368     
   1099.9910994984705     
   1099.9927253550445     
   1099.9957037629495     
   1099.9995561895339     
   1100.0036495015484     
   1099.9938796653387     
   1100.0103994385693     
   1100.0100846774469     
   1100.0073367006219     
   1100.0096571655276     
   1100.0095120772990     
   1099.9884226312095     
   1100.0090873948611     
   1100.0080756571383     
   1099.9911068346671     
   1099.9928799365828     
   1099.9964297992917     
   1099.9949077849069     
   1099.9911677763471     
   1099.9885138077748     
   1099.9873402174244     
   1099.9877993257951     
   1100.0415474245510     
   1100.0133100483256     
   1100.0219433177438     
   1100.0305886907438     
   1100.0236804520653     
   1100.0245419136966     
   1100.0440523905611     
   1099.9954791632492     
   1099.9982272484442     
   1100.0009010918257     
   1100.0037806744472     
   1100.0065073430799     
   1099.9906272033352     
   1099.9865358234108     
   1099.9799892158339     
   1099.9810709368974     
   1099.9829040557906     
   1099.9845967150002     
   1099.9857824619328     
   1100.0029909118930     
   1100.0012834749648     
   1099.9994657449356     
   1099.9970740093850     
   1099.9900692774793     
   1099.9942587187991     
   1099.9862128159084     
   1099.9831437582195     
   1099.9815395318692     
   1099.9948615873088     
   1099.9816634846543     
   1099.9926193328290     
   1099.9834283370992     
   1099.9897842707421     
   1099.9864014330726     
   1100.0245917272109     
   1099.9954161896424     
   1099.9830125905598     
   1100.0007121375081     
   1099.9804980822362     
   1100.0064336339863     
   1099.9795526660353     
   1100.0125761261977     
   1099.9804380912392     
   1100.0190344101770     
   1099.9829934964866     
   1100.0254232706147     
   1099.9867797408021     
   1100.0309837186917     
   1099.9912658227709     
   1099.9713325086309     
   1100.0349498235503     
   1100.0005679528549     
   1100.0049067660527     
   1100.0090252305001     
   1100.0130818388354     
   1099.9653111409561     
   1100.0171278526241     
   1099.9872083526125     
   1099.9819557830747     
   1099.9668755326572     
   1100.1310169373005     
   1100.0812713374141     
   1099.9506871699007     
   1099.9908503122415     
   1100.0053429764653     
   1099.9967775312618     
   1099.9915980300857     
   1099.9866673183312     
   1099.9978878775241     
   1099.9868949581007     
   1100.0208718340341     
   1099.9804360636888     
   1099.9827384941125     
   1099.9836852580997     
   1099.9837747090644     
   1099.9833416811937     
   1099.9825970298748     
   1100.0015283780322     
   1099.9823887724303     
   1100.0078897439121     
   1099.9835592959707     
   1100.0089427027881     
   1099.9864667450408     
   1100.0084102947264     
   1099.9960573991684     
   1100.0013236734630     
   1100.0059778171060     
   1100.0095215455724     
   1100.0115559023732     
   1100.0117514229810     
   1100.0098505894493     
   1100.0058302022815     
   1100.0000911568604     
   1099.9935110680951     
   1099.9552031364567     
   1099.9471889586155     
   1099.9582781137897     
   1099.9560060923379     
   1099.9525147232666     
   1099.9617349608563     
   1100.0195691339627     
   1100.0149847641953     
   1100.0177639542262     
   1100.0184891361444     
   1100.0182128588378     
   1100.0235445376989     
   1100.0148299973498     
   1099.9858378717167     
   1099.9883852236464     
   1099.9901432586817     
   1099.9918026474613     
   1100.0245654810162     
   1100.0024614310983     
   1100.0073615922863     
   1099.9925823028777     
   1100.0118391840492     
   1099.9956731788827     
   1100.0153403519696     
   1099.9982369489535     
   1100.0176026507872     
   1100.0011562602836     
   1100.0048213025500     
   1099.9639526959033     
   1100.0091262988092     
   1100.0096282059635     
   1100.0134901389129     
   1100.0014251268019     
   1100.0171095999665     
   1099.9907433880912     
   1100.0194603255773     
   1099.9786917196539     
   1100.0204727162218     
   1099.9670338252049     
   1100.0202888270053     
   1099.9576831532049     
   1100.0188992737194     
   1100.0159640089801     
   1100.0109128736453     
   1100.0031945578494     
   1099.9926883507765     
   1099.9800772839239     
   1099.9584543228104     
   1099.9544090686468     
   1100.0142357123223     
   1100.0005362331094     
   1100.0145430464120     
   1100.0181817662310     
   1100.0111889608982     
   1100.0190809776952     
   1100.0026001421813     
   1100.0080090506194     
   1100.0118172619864     
   1100.0177551211088     
   1100.0247423452599     
   1100.0239724053920     
   1099.9713377493188     
   1100.0215326743112     
   1100.0228928495351     
   1100.0250865058870     
   1100.0107136839169     
   1100.0266650656583     
   1100.0062703963981     
   1100.0264803691543     
   1099.9929839188098     
   1100.0239846945683     
   1099.9835396715728     
   1099.9727211882521     
   1100.0089915398873     
   1100.0042969389913     
   1099.9473076872400     
   1099.9998524933176     
   1099.9949075281932     
   1099.9888156674838     
   1099.9733479823724     
   1099.9648001986657     
   1099.9747679268894     
   1099.9932965142743     
   1099.9688622911908     
   1099.9735555857881     
   1099.9779453434301     
   1100.0034682633980     
   1100.0282088001291     
   1100.0280333412238     
   1100.0288586116396     
   1100.0285089294296     
   1100.0273363867959     
   1100.0311696975193     
   1100.0306901497743     
   1100.0022330976419     
   1100.0287809443962     
   1099.9938791874574     
   1100.0269676740795     
   1099.9872109816763     
   1100.0248054353995     
   1099.9821986141239     
   1100.0209459965304     
   1100.0143712330703     
   1100.0317468184926     
   1100.0052651955582     
   1099.9646275193566     
   1099.9950128633222     
   1099.9620976517979     
   1099.9855421877437     
   1099.9622546484914     
   1099.9782106650694     
   1099.9653885776220     
   1099.9731074945528     
   1099.9692584173849     
   1099.9654598118780     
   1099.9612992319844     
   1099.9575699935335     
   1099.9641212124459     
   1099.9813660851548     
   1099.9951622264980     
   1099.9483059141146     
   1099.9475853336928     
   1099.9575894983261     
   1099.9591804351744     
   1099.9675193878177     
   1099.9606337643029     
   1099.9577328841208     
   1099.9604823206948     
   1099.9679233353722     
   1100.0198262392878     
   1100.0247032001644     
   1100.0297546983136     
   1100.0153495431648     
   1100.0100567794125     
   1100.0025532159814     
   1099.9925575853829     
   1100.0208535316806     
   1099.9813721047992     
   1100.0144922746490     
   1099.9643686218262     
   1099.9607700145257     
   1099.9961547509854     
   1099.9864739092154     
   1099.9546456439398     
   1099.9755785045074     
   1099.9506418410747     
   1099.9660700373706     
   1099.9601680310664     
   1099.9551157910305     
   1099.9582939295954     
   1099.9685374796106     
   1099.9865076071512     
   1099.9595261189179     
   1099.9582743871601     
   1099.9547903278260     
   1099.9490233262004     
   1099.9529876631336     
   1099.9989577588435     
   1099.9742404368099     
   1099.9733260199794     
   1099.9773157440025     
   1099.9648106773307     
   1099.9906358637502     
   1100.0023762027324     
   1099.9958054516967     
   1099.9848973843652     
   1099.9770614085899     
   1099.9892830675180     
   1099.9847970238143     
   1099.9804263240153     
   1099.9750423534015     
   1099.9740301925513     
   1099.9798601956572     
   1099.9661559489530     
   1099.9803596058205     
   1099.9599180627415     
   1099.9587724734827     
   1099.9642015860966     
   1099.9714788086721     
   1099.9746614784672     
   1099.9827411641231     
   1099.9863370520291     
   1099.9982408125618     
   1099.9953383502063     
   1099.9930111588667     
   1100.0793377423336     
   1100.0528824829478     
   1100.0516984509186     
   1100.0420549969854     
   1100.0687775192471     
   1099.9665114738004     
   1099.9719597382557     
   1099.9618929179039     
   1099.9627272687021     
   1099.9718999456700     
   1099.9884694641157     
   1100.0078754886395     
   1099.9683585567286     
   1100.0352870312634     
   1100.0401516794166     
   1099.9746752968838     
   1100.0441896762327     
   1099.9931364390425     
   1100.0478622748421     
   1100.0154861034553     
   1100.0355050045587     
   1100.0490728350358     
   1100.0561319714707     
   1100.0600370115737     
   1100.0648741225450     
   1100.0725056957558     
   1100.0866092772569     
   1100.1321848189098     
   1100.1104401725779     
   1100.0718632884425     
   1100.0772662999327     
   1100.0901505499926     
   1100.0667681973557     
   1100.0684792386796     
   1100.1017272934548     
   1100.0342807019138     
   1100.0447470877427     
   1100.0048147591428     
   1100.0083807034891     