# vtk DataFile Version 3.1
Mesh with Data
ASCII
DATASET UNSTRUCTURED_GRID
POINTS         7552 float
      0.200000E+03      0.000000E+00      0.200000E+03
      0.000000E+00      0.000000E+00      0.200000E+03
      0.197500E+03      0.000000E+00      0.200000E+03
      0.195000E+03      0.000000E+00      0.200000E+03
      0.192500E+03      0.000000E+00      0.200000E+03
      0.190000E+03      0.000000E+00      0.200000E+03
      0.187500E+03      0.000000E+00      0.200000E+03
      0.185000E+03      0.000000E+00      0.200000E+03
      0.182500E+03      0.000000E+00      0.200000E+03
      0.180000E+03      0.000000E+00      0.200000E+03
      0.177500E+03      0.000000E+00      0.200000E+03
      0.175000E+03      0.000000E+00      0.200000E+03
      0.172500E+03      0.000000E+00      0.200000E+03
      0.170000E+03      0.000000E+00      0.200000E+03
      0.167500E+03      0.000000E+00      0.200000E+03
      0.165000E+03      0.000000E+00      0.200000E+03
      0.162500E+03      0.000000E+00      0.200000E+03
      0.160000E+03      0.000000E+00      0.200000E+03
      0.157500E+03      0.000000E+00      0.200000E+03
      0.155000E+03      0.000000E+00      0.200000E+03
      0.152500E+03      0.000000E+00      0.200000E+03
      0.150000E+03      0.000000E+00      0.200000E+03
      0.147500E+03      0.000000E+00      0.200000E+03
      0.145000E+03      0.000000E+00      0.200000E+03
      0.142500E+03      0.000000E+00      0.200000E+03
      0.140000E+03      0.000000E+00      0.200000E+03
      0.137500E+03      0.000000E+00      0.200000E+03
      0.135000E+03      0.000000E+00      0.200000E+03
      0.132500E+03      0.000000E+00      0.200000E+03
      0.130000E+03      0.000000E+00      0.200000E+03
      0.127500E+03      0.000000E+00      0.200000E+03
      0.125000E+03      0.000000E+00      0.200000E+03
      0.122500E+03      0.000000E+00      0.200000E+03
      0.120000E+03      0.000000E+00      0.200000E+03
      0.117500E+03      0.000000E+00      0.200000E+03
      0.115000E+03      0.000000E+00      0.200000E+03
      0.112500E+03      0.000000E+00      0.200000E+03
      0.110000E+03      0.000000E+00      0.200000E+03
      0.107500E+03      0.000000E+00      0.200000E+03
      0.105000E+03      0.000000E+00      0.200000E+03
      0.102500E+03      0.000000E+00      0.200000E+03
      0.100000E+03      0.000000E+00      0.200000E+03
      0.975000E+02      0.000000E+00      0.200000E+03
      0.950000E+02      0.000000E+00      0.200000E+03
      0.925000E+02      0.000000E+00      0.200000E+03
      0.900000E+02      0.000000E+00      0.200000E+03
      0.875000E+02      0.000000E+00      0.200000E+03
      0.850000E+02      0.000000E+00      0.200000E+03
      0.825000E+02      0.000000E+00      0.200000E+03
      0.800000E+02      0.000000E+00      0.200000E+03
      0.775000E+02      0.000000E+00      0.200000E+03
      0.750000E+02      0.000000E+00      0.200000E+03
      0.725000E+02      0.000000E+00      0.200000E+03
      0.700000E+02      0.000000E+00      0.200000E+03
      0.675000E+02      0.000000E+00      0.200000E+03
      0.650000E+02      0.000000E+00      0.200000E+03
      0.625000E+02      0.000000E+00      0.200000E+03
      0.600000E+02      0.000000E+00      0.200000E+03
      0.575000E+02      0.000000E+00      0.200000E+03
      0.550000E+02      0.000000E+00      0.200000E+03
      0.525000E+02      0.000000E+00      0.200000E+03
      0.500000E+02      0.000000E+00      0.200000E+03
      0.475000E+02      0.000000E+00      0.200000E+03
      0.450000E+02      0.000000E+00      0.200000E+03
      0.425000E+02      0.000000E+00      0.200000E+03
      0.400000E+02      0.000000E+00      0.200000E+03
      0.375000E+02      0.000000E+00      0.200000E+03
      0.350000E+02      0.000000E+00      0.200000E+03
      0.325000E+02      0.000000E+00      0.200000E+03
      0.300000E+02      0.000000E+00      0.200000E+03
      0.275000E+02      0.000000E+00      0.200000E+03
      0.250000E+02      0.000000E+00      0.200000E+03
      0.225000E+02      0.000000E+00      0.200000E+03
      0.200000E+02      0.000000E+00      0.200000E+03
      0.175000E+02      0.000000E+00      0.200000E+03
      0.150000E+02      0.000000E+00      0.200000E+03
      0.125000E+02      0.000000E+00      0.200000E+03
      0.100000E+02      0.000000E+00      0.200000E+03
      0.750000E+01      0.000000E+00      0.200000E+03
      0.500000E+01      0.000000E+00      0.200000E+03
      0.250000E+01      0.000000E+00      0.200000E+03
      0.000000E+00      0.000000E+00      0.000000E+00
      0.000000E+00      0.000000E+00      0.197500E+03
      0.000000E+00      0.000000E+00      0.195000E+03
      0.000000E+00      0.000000E+00      0.192500E+03
      0.000000E+00      0.000000E+00      0.190000E+03
      0.000000E+00      0.000000E+00      0.187500E+03
      0.000000E+00      0.000000E+00      0.185000E+03
      0.000000E+00      0.000000E+00      0.182500E+03
      0.000000E+00      0.000000E+00      0.180000E+03
      0.000000E+00      0.000000E+00      0.177500E+03
      0.000000E+00      0.000000E+00      0.175000E+03
      0.000000E+00      0.000000E+00      0.172500E+03
      0.000000E+00      0.000000E+00      0.170000E+03
      0.000000E+00      0.000000E+00      0.167500E+03
      0.000000E+00      0.000000E+00      0.165000E+03
      0.000000E+00      0.000000E+00      0.162500E+03
      0.000000E+00      0.000000E+00      0.160000E+03
      0.000000E+00      0.000000E+00      0.157500E+03
      0.000000E+00      0.000000E+00      0.155000E+03
      0.000000E+00      0.000000E+00      0.152500E+03
      0.000000E+00      0.000000E+00      0.150000E+03
      0.000000E+00      0.000000E+00      0.147500E+03
      0.000000E+00      0.000000E+00      0.145000E+03
      0.000000E+00      0.000000E+00      0.142500E+03
      0.000000E+00      0.000000E+00      0.140000E+03
      0.000000E+00      0.000000E+00      0.137500E+03
      0.000000E+00      0.000000E+00      0.135000E+03
      0.000000E+00      0.000000E+00      0.132500E+03
      0.000000E+00      0.000000E+00      0.130000E+03
      0.000000E+00      0.000000E+00      0.127500E+03
      0.000000E+00      0.000000E+00      0.125000E+03
      0.000000E+00      0.000000E+00      0.122500E+03
      0.000000E+00      0.000000E+00      0.120000E+03
      0.000000E+00      0.000000E+00      0.117500E+03
      0.000000E+00      0.000000E+00      0.115000E+03
      0.000000E+00      0.000000E+00      0.112500E+03
      0.000000E+00      0.000000E+00      0.110000E+03
      0.000000E+00      0.000000E+00      0.107500E+03
      0.000000E+00      0.000000E+00      0.105000E+03
      0.000000E+00      0.000000E+00      0.102500E+03
      0.000000E+00      0.000000E+00      0.100000E+03
      0.000000E+00      0.000000E+00      0.975000E+02
      0.000000E+00      0.000000E+00      0.950000E+02
      0.000000E+00      0.000000E+00      0.925000E+02
      0.000000E+00      0.000000E+00      0.900000E+02
      0.000000E+00      0.000000E+00      0.875000E+02
      0.000000E+00      0.000000E+00      0.850000E+02
      0.000000E+00      0.000000E+00      0.825000E+02
      0.000000E+00      0.000000E+00      0.800000E+02
      0.000000E+00      0.000000E+00      0.775000E+02
      0.000000E+00      0.000000E+00      0.750000E+02
      0.000000E+00      0.000000E+00      0.725000E+02
      0.000000E+00      0.000000E+00      0.700000E+02
      0.000000E+00      0.000000E+00      0.675000E+02
      0.000000E+00      0.000000E+00      0.650000E+02
      0.000000E+00      0.000000E+00      0.625000E+02
      0.000000E+00      0.000000E+00      0.600000E+02
      0.000000E+00      0.000000E+00      0.575000E+02
      0.000000E+00      0.000000E+00      0.550000E+02
      0.000000E+00      0.000000E+00      0.525000E+02
      0.000000E+00      0.000000E+00      0.500000E+02
      0.000000E+00      0.000000E+00      0.475000E+02
      0.000000E+00      0.000000E+00      0.450000E+02
      0.000000E+00      0.000000E+00      0.425000E+02
      0.000000E+00      0.000000E+00      0.400000E+02
      0.000000E+00      0.000000E+00      0.375000E+02
      0.000000E+00      0.000000E+00      0.350000E+02
      0.000000E+00      0.000000E+00      0.325000E+02
      0.000000E+00      0.000000E+00      0.300000E+02
      0.000000E+00      0.000000E+00      0.275000E+02
      0.000000E+00      0.000000E+00      0.250000E+02
      0.000000E+00      0.000000E+00      0.225000E+02
      0.000000E+00      0.000000E+00      0.200000E+02
      0.000000E+00      0.000000E+00      0.175000E+02
      0.000000E+00      0.000000E+00      0.150000E+02
      0.000000E+00      0.000000E+00      0.125000E+02
      0.000000E+00      0.000000E+00      0.100000E+02
      0.000000E+00      0.000000E+00      0.750000E+01
      0.000000E+00      0.000000E+00      0.500000E+01
      0.000000E+00      0.000000E+00      0.250000E+01
      0.200000E+03      0.000000E+00      0.000000E+00
      0.250000E+01      0.000000E+00      0.000000E+00
      0.500000E+01      0.000000E+00      0.000000E+00
      0.750000E+01      0.000000E+00      0.000000E+00
      0.100000E+02      0.000000E+00      0.000000E+00
      0.125000E+02      0.000000E+00      0.000000E+00
      0.150000E+02      0.000000E+00      0.000000E+00
      0.175000E+02      0.000000E+00      0.000000E+00
      0.200000E+02      0.000000E+00      0.000000E+00
      0.225000E+02      0.000000E+00      0.000000E+00
      0.250000E+02      0.000000E+00      0.000000E+00
      0.275000E+02      0.000000E+00      0.000000E+00
      0.300000E+02      0.000000E+00      0.000000E+00
      0.325000E+02      0.000000E+00      0.000000E+00
      0.350000E+02      0.000000E+00      0.000000E+00
      0.375000E+02      0.000000E+00      0.000000E+00
      0.400000E+02      0.000000E+00      0.000000E+00
      0.425000E+02      0.000000E+00      0.000000E+00
      0.450000E+02      0.000000E+00      0.000000E+00
[...]
CELL_DATA        14782
SCALARS model_vp float
LOOKUP_TABLE default
   1099.8328117568249     
   1100.2466730893423     
   1100.3464363893804     
   1099.9264260338223     
   1099.8312529185280     
   1100.1657883096459     
   1099.7690785551210     
   1099.9732049004351     
   1099.8647139813456     
   1099.7795624773787     
   1099.9137822980122     
   1099.8985535813579     
   1099.8742263176807     
   1099.8851971858321     
   1099.9071162786015     
   1100.4131783108053     
   1100.1360132813447     
   1099.9014420424214     
   1099.8426543154733     
   1099.8044886083730     
   1099.8612976737554     
   1099.8838951314067     
   1099.8365764981422     
   1099.8750634437827     
   1099.8539386130221     
   1099.7558206781932     
   1099.7413100491731     
   1099.8633601283261     
   1099.8503713726484     
   1099.8047470859212     
   1099.7536214592005     
   1099.7339587009169     
   1099.8554142704497     
   1099.9678605605006     
   1100.4474662319260     
   1100.0762572223900     
   1100.4549873872002     
   1100.5080874587159     
   1100.4869800882968     
   1100.4403402505370     
   1100.0379286939719     
   1100.1596230282933     
   1100.2806776118834     
   1100.3566463406280     
   1099.7553309621021     
   1099.7814101834379     
   1099.8295249729510     
   1099.8492714466220     
   1099.8584591132010     
   1099.8673568360064     
   1100.6280343281244     
   1099.7846428581674     
   1099.8444951337049     
   1099.8728994059804     
   1099.8669858897856     
   1099.9936602494065     
   1099.8511440384702     
   1100.1070288718140     
   1099.8095392953385     
   1100.1816644393573     
   1099.7834517478730     
   1099.8112202299965     
   1099.9789169294550     
   1100.2304032175000     
   1100.0281800654725     
   1100.2963363116073     
   1100.1473853900470     
   1100.3916221130416     
   1100.2209049440173     
   1100.2342962334728     
   1099.0233025230575     
   1099.5052204678314     
   1100.3562150565392     
   1100.4582559139558     
   1100.0868574771525     
   1099.9886101035611     
   1099.8388241271864     
   1099.9185575590045     
   1100.1334342057644     
   1099.9923310236763     
   1100.0036730362654     
   1099.9021855379451     
   1100.0250244018650     
   1099.8844780784937     
   1099.8966942935958     
   1099.9262667347150     
   1100.3026862333190     
   1100.2712300809051     
   1100.3551413761431     
   1099.9509085897928     
   1100.0490479362882     
   1100.1971354553632     
   1098.6391494157845     
   1099.9560685735648     
   1099.9386742073582     
   1100.4435818470511     
   1100.3570363785441     
   1099.3961436668196     
   1100.2002795037879     
   1100.2118559370290     
   1100.0524430592777     
   1099.9201627506625     
   1099.8432217580532     
   1099.8830807181034     
   1099.9737689323667     
   1098.6165256964732     
   1100.1638477083657     
   1100.0235200197560     
   1100.6087356047090     
   1100.3241111926977     
   1100.2278919679768     
   1100.3194674434831     
   1100.0669008153163     
   1100.1669999760131     
   1100.4935327472849     
   1100.0756250598981     
   1100.6211652545987     
   1100.1248170361557     
   1100.5250574462327     
   1100.2232357534110     
   1100.3535249824108     
   1100.3802985118496     
   1100.1572029600691     
   1100.5557794788640     
   1100.6797327545805     
   1099.7372947785966     
   1100.6967727836718     
   1099.6692519824906     
   1100.5962056474025     
   1099.6358526981739     
   1099.6425896168155     
   1100.2060243067883     
   1100.0247888033714     
   1099.6002242848451     
   1099.8888010273922     
   1099.7870949235466     
   1099.6971121095221     
   1099.6086257748032     
   1099.5358085921109     
   1099.5055095035154     
   1099.3316701888352     
   1100.1685315497921     
   1100.1802639308846     
   1100.0339646854227     
   1099.8124157051045     
   1100.6489754359761     
   1100.6696757688276     
   1100.7847646887496     
   1100.5126557428448     
   1100.4628603166107     
   1100.7238890220574     
   1100.6346393432757     
   1100.7647351705541     
   1100.3592927577797     
   1098.6543548013030     
   1100.4536825449518     
   1100.4890720998278     
   1100.2126236409358     
   1100.7744651536188     
   1099.9253584208675     
   1100.7921698049129     
   1099.9011284763351     
   1100.6682122657201     
   1099.8910986642738     
   1100.4320113228925     
   1100.2598954212988     
   1099.6938064903297     
   1099.5051000628282     
   1099.9550450097188     
   1099.8628809439194     
   1099.8826749617072     
   1099.9503691545158     
   1099.9762488348194     
   1099.8937171313696     
   1099.6984401692662     
   1099.4511083730542     
   1098.7237563125063     
   1099.2989615474282     
   1100.3017237093663     
   1100.5074216470152     
   1099.7097790723212     
   1099.9834609485822     
   1100.5850625625512     
   1100.4711962748752     
   1100.7265676243128     
   1100.3115727086483     
   1100.5991209879562     
   1100.6690139899897     
   1099.5812159472453     
   1100.6574210864737     
   1099.6291119563095     
   1100.2199093932350     
   1099.8662479762340     
   1099.5580627790036     
   1099.7300419869230     
   1099.9818422530980     
   1099.6799730514572     
   1099.4271549502898     
   1099.6261636496815     
   1099.9077513608829     
   1100.1590512237801     
   1100.2804427401575     
   1100.2201988704662     
   1099.9930690345791     
   1099.6946128743029     
   1099.5277448357404     
   1099.9101292733649     
   1099.0249253270295     
   1099.2606952727110     
   1099.6696369126230     
   1100.5255844175997     
   1099.2945308647231     
   1099.9998958224417     
   1099.6164802024475     
   1100.3659483366428     
   1099.6416833495487     
   1099.0428589889282     
   1100.1865053298670     
   1099.1968106347126     
   1099.8817627066003     
   1099.4894591399766     
   1099.4942698358082     
   1099.8124538627874     
   1099.1272747882620     
   1100.0870601623078     
   1098.8948596377181     
   1098.8639294823645     
   1100.2076118107498     
   1099.1040539682460     
   1099.8629711145511     
   1100.0615889558894     
   1098.7727370891268     
   1100.1900645150749     
   1100.2377230800566     
   1099.6034077253989     
   1099.1264434052478     
   1098.8408959637070     
   1098.8632110895210     
   1098.9283609729798     
   1098.6477475940474     
   1098.6908676787330     
   1098.6641706806981     
   1099.2261279058164     
   1101.7096311798637     
   1099.3917536748827     
   1098.8715921010389     
   1099.5493471363220     
   1098.6207872811694     
   1099.6346076923076     
   1098.8208958925770     
   1099.1427795424759     
   1099.4330418898774     
   1099.5675927108127     
   1099.4124165684716     
   1099.3719509243706     
   1100.3198497145036     
   1099.3340603255056     
   1098.4447626381557     
   1098.4250926712702     
   1099.4047305990869     
   1099.8623211984243     
   1099.9415407347938     
   1099.2979336105880     
   1098.9539798789360     
   1099.1894760430425     
   1098.8854981099571     
   1099.7148622207887     
   1098.7207783445319     
   1098.7193138023597     
   1099.5147505548587     
   1098.9623165760877     
   1099.0836662346644     
   1098.8083372256542     
   1099.8894037671550     
   1098.8539779455571     
   1100.2073590120888     
   1100.1989926193396     
   1099.8434843567218     
   1099.2845847346168     
   1098.5488936756817     
   1099.9904658884759     
   1102.0897097912784     
   1100.8548385743543     
   1100.1830710616048     
   1100.8792913476905     
   1100.0082190590158     
   1100.5489329715556     
   1101.0909068923224     
   1100.2014170062389     
   1100.6773994168784     
   1099.3302515218545     
   1100.7039509226463     
   1099.7707048537532     
   1099.4755284710800     
   1100.3363483353342     
   1098.8139455779010     
   1101.1409210516993     
   1101.0801834437275     
   1100.6746012452097     
   1100.0342769387485     
   1098.7670574540150     
   1098.5000304880266     
   1101.1288415421814     
   1100.0194435679941     
   1100.4845754881310     
   1100.9464568257306     
   1100.1023601616300     
   1101.5651018449112     
   1101.4610210272660     
   1101.5441928158064     
   1101.5425007478766     
   1101.3376608913027     
   1100.6181391254988     
   1101.1551226311324     
   1101.5426779251070     
   1099.5849684110672     
   1101.6526424230917     
   1099.2448293737932     
   1101.4869591662296     
   1101.1703786474907     
   1100.8497521807458     
   1100.5827691883439     
   1100.0067150320413     
   1101.4318100111489     
   1100.9508501769549     
   1100.6591579759204     
   1101.1586327720115     
   1101.2078289754409     
   1101.0982228943849     
   1101.5025602428373     
   1100.9559537158320     
   1101.6709328212944     
   1101.1928141423614     
   1101.5113719965664     
   1101.4240079618405     
   1101.1051083568525     
   1100.7950231220439     
   1100.7771364326277     
   1101.1452326008277     
   1101.7004030769999     
   1102.0508152957077     
   1101.6052012914904     
   1102.9975800490286     
   1102.1400072349988     
   1103.2808939091713     
   1102.9143214291935     
   1102.7368854453514     
   1103.5219031923484     
   1103.5994482764868     
   1103.0308708920506     
   1103.7874348073251     
   1103.4428865146501     
   1102.4179712421385     
   1103.4048158498799     
   1102.5862756990102     
   1103.3763412235924     
   1103.4616860350936     
   1102.9216852140835     
   1102.2016166787769     
   1101.9431458329143     
   1101.9355130052572     
   1100.8959554615985     
   1100.9436402034421     
   1099.9603979732783     
   1099.9524497119626     
   1099.9904253875166     
   1099.9999998974649     
   1099.9999999058125     
   1100.0000000000000     
   1099.9894597102682     
   1100.0712779003859     
   1100.0294871563924     
   1099.9937328150934     
   1099.9552960430246     
   1100.0500253139555     
   1099.9829247467810     
   1100.0117609621639     
   1100.0464504527060     
   1100.0796426856650     
   1099.9987723437077     
   1099.9934525764093     
   1100.0025064047586     
   1100.0139688297550     
   1099.9975715395601     
   1100.0700013927367     
   1100.0740189706253     
   1100.0943451164001     
   1100.0068610685607     
   1099.9974590491095     
   1099.9148738585729     
   1100.0157333749698     
   1100.0405243518271     
   1100.0971168206318     
   1099.8825440227868     
   1099.9864494237011     
   1100.0054305106398     
   1100.0073183913437     
   1100.0028527797519     
   1099.9691075190617     
   1099.9745192420967     
   1099.9836109607713     
   1099.9941239370742     
   1100.0028343116430     
   1100.0028479489392     
   1100.0178625457972     
   1100.0047001352239     
   1100.0067226975864     
   1099.9955911903844     
   1099.9867283295309     
   1099.9978984931299     
   1099.9871891053560     
   1099.9943604176219     
   1099.9681881610747     
   1099.9713887703761     
   1099.9777323023175     
   1099.9983502265209     
   1099.9893040502182     
   1099.9817918050778     
   1099.9781058868889     
   1099.9787574235268     
   1100.0904295199352     
   1100.0185314750577     
   1100.0337038264865     
   1100.0527646068174     
   1100.0799137577710     
   1100.0883095664665     
   1100.1113334103250     
   1100.0298736122741     
   1100.0351529358475     
   1100.0402255822435     
   1100.0474243393942     
   1100.0567797406277     
   1100.0171013908564     
   1100.0066165850112     
   1099.9904021605291     
   1099.9988487485382     
   1100.0012701590963     
   1099.9917815729218     
   1099.9711182645517     
   1099.9660460122866     
   1099.9679527439266     
   1099.9792268965805     
   1099.9931354259397     
   1100.0050552493606     
   1099.9911557779030     
   1100.0006465314805     
   1099.9937568025607     
   1099.9892632250906     
   1099.9688454219058     
   1099.9901668227460     
   1099.9859467469400     
   1099.9966574311916     
   1099.9988010029349     
   1100.0032300280841     
   1099.9155727651278     
   1100.0259973586153     
   1099.9996818076800     
   1100.0327733902648     
   1099.9928921039443     
   1100.0384456612751     
   1099.9888284012800     
   1100.0449773198147     
   1099.9913018848977     
   1100.0541196733541     
   1100.0007730662005     
   1100.0667138550605     
   1100.0146539917675     
   1100.0820230267302     
   1100.0289941047472     
   1099.7907932797436     
   1100.1084125290206     
   1100.0478475839934     
   1100.0514244105107     
   1100.0532607727148     
   1100.0560011929012     
   1099.8589496563363     
   1100.0615060275102     
   1100.0086851771730     
   1099.9957446912349     
   1099.9259771746417     
   1100.3879069192840     
   1100.2854581690101     
   1099.8597032648399     
   1099.9948826051013     
   1100.0695419849330     
   1100.0389857111372     
   1100.0177603318275     
   1099.9985041108284     
   1099.9855359541179     
   1099.9466178667665     
   1100.0089185848749     
   1099.9841620378500     
   1099.9863200268467     
   1099.9647119329070     
   1099.9902593648028     
   1100.0031015845252     
   1100.0014923180361     
   1100.0573251468406     
   1099.9917139619149     
   1100.0745522865900     
   1099.9832258338436     
   1100.0729220036960     
   1099.9835158805704     
   1100.0661958266587     
   1100.0145248102567     
   1100.0373140001370     
   1100.0580103103093     
   1100.0726904299479     
   1100.0795487383768     
   1100.0786244529268     
   1100.0708421679738     
   1100.0576842560297     
   1100.0412036498703     
   1100.0240160858264     
   1099.8906468925659     
   1099.8606336170026     
   1099.8108318956247     
   1099.8234318370121     
   1099.8309517312962     
   1099.8675538803386     
   1100.0485286275998     
   1100.0647278834326     
   1100.0710465694051     
   1100.0707379176552     
   1100.0700723959662     
   1100.0188520985967     
   1100.0295961140923     
   1099.9933678297418     
   1100.0147271600447     
   1100.0164485513203     
   1100.0047249947120     
   1100.0546005931615     
   1099.9917976476434     
   1100.0081633561706     
   1100.0245080693942     
   1100.0293136519474     
   1100.0290855690746     
   1100.0491718042192     
   1100.0171278376636     
   1100.0634959770862     
   1100.0010496452824     
   1099.9917694237231     
   1099.8782765322412     
   1099.9945765384457     
   1100.0515354924960     
   1100.0085089620011     
   1100.0311397459700     
   1100.0276591724951     
   1100.0043291358761     
   1100.0449487781177     
   1099.9733829742445     
   1100.0559924109634     
   1099.9419346895725     
   1100.0599565705286     
   1099.9137230345827     
   1100.0579278415280     
   1100.0510136885705     
   1100.0390963827547     
   1100.0207974821831     
   1099.9949526716844     
   1099.9623178376710     
   1099.8265269290603     
   1099.7971713708500     
   1100.0342687366697     
   1099.9801971988450     
   1100.0262869626317     
   1100.0395468956153     
   1100.0589200471516     
   1100.0645950706582     
   1100.0492642563099     
   1100.0615914305415     
   1100.0506846019221     
   1100.0125496769351     
   1100.0342437026675     
   1100.0455213234461     
   1099.9990987220367     
   1100.0472150973287     
   1100.0251284642509     
   1100.0184088264050     
   1100.0112552905775     
   1100.0269678258592     
   1099.9961900458068     
   1100.0415288221141     
   1099.9608323953153     
   1100.0509651140958     
   1099.9357817994000     
   1099.9041523560743     
   1100.0131703399368     
   1099.9910082492902     
   1099.8011436257716     
   1099.9711274880653     
   1099.9535616640085     
   1099.9357987196454     
   1099.8891610971261     
   1099.8024285060892     
   1099.7995605303420     
   1100.0206445480319     
   1099.8701407120720     
   1099.8872528633353     
   1099.9065581270261     
   1100.0263310808089     
   1100.0340842697001     
   1100.1074718233529     
   1100.0787844826732     
   1100.0482154887575     
   1100.0395864516047     
   1100.1239041672416     
   1100.0927016314204     
   1100.0357935448599     
   1100.0568586920174     
   1100.0010652636261     
   1100.0377357103946     
   1099.9638103392956     
   1100.0406629535830     
   1099.9314743763032     
   1100.0561821266051     
   1100.0682086157078     
   1100.2069647210099     
   1100.0638473270471     
   1099.8527202204382     
   1100.0394974229887     
   1099.8345617474406     
   1100.0006184423880     
   1099.8166948421504     
   1099.9576735915118     
   1099.8011338884789     
   1099.9201268036065     
   1099.8919271120023     
   1099.8713951657539     
   1099.8546524692542     
   1099.8387079088848     
   1099.8417511310336     
   1099.8580762045669     
   1099.9212703485787     
   1099.8200804579938     
   1099.8320105823634     
   1099.8667693305540     
   1099.8829599222240     
   1099.8722038721271     
   1099.8840955945680     
   1099.9189071255057     
   1099.9642727591231     
   1100.0011170726823     
   1100.0334958624967     
   1100.0657713905828     
   1100.1123534550979     
   1100.0276920110246     
   1100.0423001743270     
   1100.0594738501372     
   1100.0615548435837     
   1100.0667915072593     
   1100.0400612226922     
   1100.0263548822234     
   1099.9516582115473     
   1099.9108074027611     
   1100.0455913568628     
   1100.0516036647055     
   1099.8560855528035     
   1100.0328856470562     
   1099.8450473463474     
   1099.9929254705537     
   1099.9458358279951     
   1099.8148751524227     
   1099.9063974390106     
   1099.8206983768207     
   1099.8371562198192     
   1099.8732849943940     
   1099.8713825124728     
   1099.8683283845896     
   1099.8475433869039     
   1099.8391310960747     
   1099.9673092332259     
   1099.9402866598048     
   1099.9558452150877     
   1099.9529973807723     
   1099.8283571318348     
   1099.9805946580163     
   1100.0059422681006     
   1099.9767326986180     
   1100.0012309789040     
   1100.0138298877912     
   1099.9556307706971     
   1099.9531061553985     
   1099.9729810995059     
   1099.8838632152626     
   1099.9882543650442     
   1099.9096869211014     
   1099.9786489533290     
   1099.9363296842364     
   1099.9432595040494     
   1099.8977560646510     
   1099.8639307949056     
   1099.9485731010348     
   1099.8571115756392     
   1099.9416788806614     
   1099.8794393946162     
   1100.0039255774561     
   1100.0235945512766     
   1100.0267653013741     
   1100.2704229396265     
   1100.2029474522064     
   1100.2028821759804     
   1100.1326988633232     
   1100.0792584335620     
   1099.9308534911347     
   1099.9336317436716     
   1099.8979400440276     
   1099.8496770790434     
   1099.8128620090104     
   1099.8096914299149     
   1099.8470264008783     
   1099.9089846405743     
   1099.9968425421237     
   1100.0729063184090     
   1099.7877218430049     
   1100.1727567867085     
   1099.7822962070311     
   1100.1947817008997     
   1099.8224727761576     
   1099.8998366866438     
   1099.9943253221295     
   1100.0859567740872     
   1100.1622502082521     
   1100.2194821774756     
   1100.2594163185677     
   1100.2994657500844     
   1100.4039791332907     
   1100.3511201921049     
   1100.1674795138108     
   1100.2368196093541     
   1100.2954731286579     
   1100.1612000326052     
   1100.2215497671059     
   1100.3237042636420     
   1100.2094832790544     
   1100.2045479283163     
   1100.2014361322674     
   1100.1561502214527     