# vtk DataFile Version 3.1
Mesh with Data
ASCII
DATASET UNSTRUCTURED_GRID
POINTS         7552 float
      0.200000E+03      0.000000E+00      0.200000E+03
      0.000000E+00      0.000000E+00      0.200000E+03
      0.197500E+03      0.000000E+00      0.200000E+03
      0.195000E+03      0.000000E+00      0.200000E+03
      0.192500E+03      0.000000E+00      0.200000E+03
      0.190000E+03      0.000000E+00      0.200000E+03
      0.187500E+03      0.000000E+00      0.200000E+03
      0.185000E+03      0.000000E+00      0.200000E+03
      0.182500E+03      0.000000E+00      0.200000E+03
      0.180000E+03      0.000000E+00      0.200000E+03
      0.177500E+03      0.000000E+00      0.200000E+03
      0.175000E+03      0.000000E+00      0.200000E+03
      0.172500E+03      0.000000E+00      0.200000E+03
      0.170000E+03      0.000000E+00      0.200000E+03
      0.167500E+03      0.000000E+00      0.200000E+03
      0.165000E+03      0.000000E+00      0.200000E+03
      0.162500E+03      0.000000E+00      0.200000E+03
      0.160000E+03      0.000000E+00      0.200000E+03
      0.157500E+03      0.000000E+00      0.200000E+03
      0.155000E+03      0.000000E+00      0.200000E+03
      0.152500E+03      0.000000E+00      0.200000E+03
      0.150000E+03      0.000000E+00      0.200000E+03
      0.147500E+03      0.000000E+00      0.200000E+03
      0.145000E+03      0.000000E+00      0.200000E+03
      0.142500E+03      0.000000E+00      0.200000E+03
      0.140000E+03      0.000000E+00      0.200000E+03
      0.137500E+03      0.000000E+00      0.200000E+03
      0.135000E+03      0.000000E+00      0.200000E+03
      0.132500E+03      0.000000E+00      0.200000E+03
      0.130000E+03      0.000000E+00      0.200000E+03
      0.127500E+03      0.000000E+00      0.200000E+03
      0.125000E+03      0.000000E+00      0.200000E+03
      0.122500E+03      0.000000E+00      0.200000E+03
      0.120000E+03      0.000000E+00      0.200000E+03
      0.117500E+03      0.000000E+00      0.200000E+03
      0.115000E+03      0.000000E+00      0.200000E+03
      0.112500E+03      0.000000E+00      0.200000E+03
      0.110000E+03      0.000000E+00      0.200000E+03
      0.107500E+03      0.000000E+00      0.200000E+03
      0.105000E+03      0.000000E+00      0.200000E+03
      0.102500E+03      0.000000E+00      0.200000E+03
      0.100000E+03      0.000000E+00      0.200000E+03
      0.975000E+02      0.000000E+00      0.200000E+03
      0.950000E+02      0.000000E+00      0.200000E+03
      0.925000E+02      0.000000E+00      0.200000E+03
      0.900000E+02      0.000000E+00      0.200000E+03
      0.875000E+02      0.000000E+00      0.200000E+03
      0.850000E+02      0.000000E+00      0.200000E+03
      0.825000E+02      0.000000E+00      0.200000E+03
      0.800000E+02      0.000000E+00      0.200000E+03
      0.775000E+02      0.000000E+00      0.200000E+03
      0.750000E+02      0.000000E+00      0.200000E+03
      0.725000E+02      0.000000E+00      0.200000E+03
      0.700000E+02      0.000000E+00      0.200000E+03
      0.675000E+02      0.000000E+00      0.200000E+03
      0.650000E+02      0.000000E+00      0.200000E+03
      0.625000E+02      0.000000E+00      0.200000E+03
      0.600000E+02      0.000000E+00      0.200000E+03
      0.575000E+02      0.000000E+00      0.200000E+03
      0.550000E+02      0.000000E+00      0.200000E+03
      0.525000E+02      0.000000E+00      0.200000E+03
      0.500000E+02      0.000000E+00      0.200000E+03
      0.475000E+02      0.000000E+00      0.200000E+03
      0.450000E+02      0.000000E+00      0.200000E+03
      0.425000E+02      0.000000E+00      0.200000E+03
      0.400000E+02      0.000000E+00      0.200000E+03
      0.375000E+02      0.000000E+00      0.200000E+03
      0.350000E+02      0.000000E+00      0.200000E+03
      0.325000E+02      0.000000E+00      0.200000E+03
      0.300000E+02      0.000000E+00      0.200000E+03
      0.275000E+02      0.000000E+00      0.200000E+03
      0.250000E+02      0.000000E+00      0.200000E+03
      0.225000E+02      0.000000E+00      0.200000E+03
      0.200000E+02      0.000000E+00      0.200000E+03
      0.175000E+02      0.000000E+00      0.200000E+03
      0.150000E+02      0.000000E+00      0.200000E+03
      0.125000E+02      0.000000E+00      0.200000E+03
      0.100000E+02      0.000000E+00      0.200000E+03
      0.750000E+01      0.000000E+00      0.200000E+03
      0.500000E+01      0.000000E+00      0.200000E+03
      0.250000E+01      0.000000E+00      0.200000E+03
      0.000000E+00      0.000000E+00      0.000000E+00
      0.000000E+00      0.000000E+00      0.197500E+03
      0.000000E+00      0.000000E+00      0.195000E+03
      0.000000E+00      0.000000E+00      0.192500E+03
      0.000000E+00      0.000000E+00      0.190000E+03
      0.000000E+00      0.000000E+00      0.187500E+03
      0.000000E+00      0.000000E+00      0.185000E+03
      0.000000E+00      0.000000E+00      0.182500E+03
      0.000000E+00      0.000000E+00      0.180000E+03
      0.000000E+00      0.000000E+00      0.177500E+03
      0.000000E+00      0.000000E+00      0.175000E+03
      0.000000E+00      0.000000E+00      0.172500E+03
      0.000000E+00      0.000000E+00      0.170000E+03
      0.000000E+00      0.000000E+00      0.167500E+03
      0.000000E+00      0.000000E+00      0.165000E+03
      0.000000E+00      0.000000E+00      0.162500E+03
      0.000000E+00      0.000000E+00      0.160000E+03
      0.000000E+00      0.000000E+00      0.157500E+03
      0.000000E+00      0.000000E+00      0.155000E+03
      0.000000E+00      0.000000E+00      0.152500E+03
      0.000000E+00      0.000000E+00      0.150000E+03
      0.000000E+00      0.000000E+00      0.147500E+03
      0.000000E+00      0.000000E+00      0.145000E+03
      0.000000E+00      0.000000E+00      0.142500E+03
      0.000000E+00      0.000000E+00      0.140000E+03
      0.000000E+00      0.000000E+00      0.137500E+03
      0.000000E+00      0.000000E+00      0.135000E+03
      0.000000E+00      0.000000E+00      0.132500E+03
      0.000000E+00      0.000000E+00      0.130000E+03
      0.000000E+00      0.000000E+00      0.127500E+03
      0.000000E+00      0.000000E+00      0.125000E+03
      0.000000E+00      0.000000E+00      0.122500E+03
      0.000000E+00      0.000000E+00      0.120000E+03
      0.000000E+00      0.000000E+00      0.117500E+03
      0.000000E+00      0.000000E+00      0.115000E+03
      0.000000E+00      0.000000E+00      0.112500E+03
      0.000000E+00      0.000000E+00      0.110000E+03
      0.000000E+00      0.000000E+00      0.107500E+03
      0.000000E+00      0.000000E+00      0.105000E+03
      0.000000E+00      0.000000E+00      0.102500E+03
      0.000000E+00      0.000000E+00      0.100000E+03
      0.000000E+00      0.000000E+00      0.975000E+02
      0.000000E+00      0.000000E+00      0.950000E+02
      0.000000E+00      0.000000E+00      0.925000E+02
      0.000000E+00      0.000000E+00      0.900000E+02
      0.000000E+00      0.000000E+00      0.875000E+02
      0.000000E+00      0.000000E+00      0.850000E+02
      0.000000E+00      0.000000E+00      0.825000E+02
      0.000000E+00      0.000000E+00      0.800000E+02
      0.000000E+00      0.000000E+00      0.775000E+02
      0.000000E+00      0.000000E+00      0.750000E+02
      0.000000E+00      0.000000E+00      0.725000E+02
      0.000000E+00      0.000000E+00      0.700000E+02
      0.000000E+00      0.000000E+00      0.675000E+02
      0.000000E+00      0.000000E+00      0.650000E+02
      0.000000E+00      0.000000E+00      0.625000E+02
      0.000000E+00      0.000000E+00      0.600000E+02
      0.000000E+00      0.000000E+00      0.575000E+02
      0.000000E+00      0.000000E+00      0.550000E+02
      0.000000E+00      0.000000E+00      0.525000E+02
      0.000000E+00      0.000000E+00      0.500000E+02
      0.000000E+00      0.000000E+00      0.475000E+02
      0.000000E+00      0.000000E+00      0.450000E+02
      0.000000E+00      0.000000E+00      0.425000E+02
      0.000000E+00      0.000000E+00      0.400000E+02
      0.000000E+00      0.000000E+00      0.375000E+02
      0.000000E+00      0.000000E+00      0.350000E+02
      0.000000E+00      0.000000E+00      0.325000E+02
      0.000000E+00      0.000000E+00      0.300000E+02
      0.000000E+00      0.000000E+00      0.275000E+02
      0.000000E+00      0.000000E+00      0.250000E+02
      0.000000E+00      0.000000E+00      0.225000E+02
      0.000000E+00      0.000000E+00      0.200000E+02
      0.000000E+00      0.000000E+00      0.175000E+02
      0.000000E+00      0.000000E+00      0.150000E+02
      0.000000E+00      0.000000E+00      0.125000E+02
      0.000000E+00      0.000000E+00      0.100000E+02
      0.000000E+00      0.000000E+00      0.750000E+01
      0.000000E+00      0.000000E+00      0.500000E+01
      0.000000E+00      0.000000E+00      0.250000E+01
      0.200000E+03      0.000000E+00      0.000000E+00
      0.250000E+01      0.000000E+00      0.000000E+00
      0.500000E+01      0.000000E+00      0.000000E+00
      0.750000E+01      0.000000E+00      0.000000E+00
      0.100000E+02      0.000000E+00      0.000000E+00
      0.125000E+02      0.000000E+00      0.000000E+00
      0.150000E+02      0.000000E+00      0.000000E+00
      0.175000E+02      0.000000E+00      0.000000E+00
      0.200000E+02      0.000000E+00      0.000000E+00
      0.225000E+02      0.000000E+00      0.000000E+00
      0.250000E+02      0.000000E+00      0.000000E+00
      0.275000E+02      0.000000E+00      0.000000E+00
      0.300000E+02      0.000000E+00      0.000000E+00
      0.325000E+02      0.000000E+00      0.000000E+00
      0.350000E+02      0.000000E+00      0.000000E+00
      0.375000E+02      0.000000E+00      0.000000E+00
      0.400000E+02      0.000000E+00      0.000000E+00
      0.425000E+02      0.000000E+00      0.000000E+00
      0.450000E+02      0.000000E+00      0.000000E+00
[...]
CELL_DATA        14782
SCALARS model_vp float
LOOKUP_TABLE default
   1099.7913383729817     
   1100.3689839006672     
   1100.2979159461540     
   1100.1371593754945     
   1099.6727001111053     
   1100.2856327791628     
   1099.7087416499912     
   1099.8795599589143     
   1099.7598137095422     
   1099.7109137981217     
   1099.7884363897958     
   1099.7274166653335     
   1099.7058557135119     
   1099.7569681823175     
   1099.8661861659868     
   1100.6627562106917     
   1100.2768636965091     
   1099.8083368535476     
   1099.7830947430011     
   1099.9427655455900     
   1099.8107347326682     
   1099.9983945188658     
   1099.7004285580970     
   1099.9294728536886     
   1099.9816811064770     
   1099.8434989020132     
   1099.7468024444947     
   1099.9141334389603     
   1099.9851036461907     
   1099.9592112596340     
   1099.8603907161796     
   1099.7547871846332     
   1099.7529002786980     
   1099.8742365607281     
   1100.6686788054328     
   1100.0326931298200     
   1100.6800096444163     
   1100.7414498582223     
   1100.6998547345684     
   1100.5053223493451     
   1100.1870702062959     
   1100.3650648315106     
   1100.4963504540140     
   1100.5230407222332     
   1099.8091144785494     
   1099.9257311827150     
   1100.0106032657895     
   1099.8820241842818     
   1099.9968889093489     
   1099.9750296504562     
   1100.3973435109808     
   1099.7435332330576     
   1099.8626542087643     
   1099.7775131072742     
   1100.0013736420719     
   1099.9042407042041     
   1100.0420068053395     
   1100.0737206279243     
   1099.9722040591680     
   1100.2254115516014     
   1099.8548132292424     
   1099.7802117486460     
   1100.0753863559405     
   1100.3884367075395     
   1099.9385938294097     
   1100.4569894125166     
   1100.1185273398992     
   1100.5714506456654     
   1100.2775210164750     
   1100.3640169315577     
   1098.5259070629791     
   1099.4224709733114     
   1100.5105211302430     
   1100.6629678753752     
   1100.1341130446931     
   1100.0003095458692     
   1099.8319609017947     
   1100.0457581327278     
   1100.0320705311003     
   1099.8990856683347     
   1100.2353319463627     
   1100.1034399633318     
   1100.1913765564725     
   1100.0804796141279     
   1099.8865139163879     
   1100.1270780300001     
   1100.4079071260744     
   1100.2361755962872     
   1100.4254765965923     
   1099.9530281250402     
   1099.9546220087677     
   1100.0838624761232     
   1098.5751153331421     
   1100.0333556812918     
   1099.9622579256409     
   1100.6180411235964     
   1100.5927887155444     
   1099.1451725650400     
   1100.3175303433470     
   1100.4421913878186     
   1100.2207704223733     
   1099.9997950648167     
   1099.8433258364607     
   1099.8512131863465     
   1099.9978294472176     
   1098.4175512427205     
   1100.2931464055316     
   1100.0645425933176     
   1100.6376579092546     
   1100.1819499967928     
   1100.3192738709199     
   1100.2477542407314     
   1100.0986286126010     
   1100.0732914424257     
   1100.4022186422008     
   1100.2611670707370     
   1100.7805421327494     
   1100.1749148990718     
   1100.7692760372404     
   1100.1336028482242     
   1100.6081202607459     
   1100.2240979738210     
   1100.3528250784389     
   1100.4384511638698     
   1100.6812820639157     
   1099.6515997739600     
   1100.8357039645105     
   1099.5450113282848     
   1100.8291244310451     
   1099.5174234463632     
   1099.5692889247227     
   1100.3984336774722     
   1100.1172339772368     
   1099.2730909926579     
   1099.8767418902269     
   1099.6942195373895     
   1099.5587412039436     
   1099.4595034906604     
   1099.4067106150653     
   1099.4537606045665     
   1099.1927590480464     
   1100.0849544376788     
   1100.0248674477082     
   1099.7777250382974     
   1099.4831090521473     
   1100.4569313352181     
   1100.8646800568156     
   1100.8719759086439     
   1100.3342046411165     
   1100.2860091505511     
   1100.5740103382302     
   1100.4661248496134     
   1100.7056459071180     
   1100.3024657745400     
   1098.6860695015118     
   1100.6707691818378     
   1100.3072874754007     
   1100.3656095247698     
   1100.6842433609963     
   1099.8575495786267     
   1100.8520589962950     
   1099.7632978063139     
   1100.8438506879138     
   1099.7286340571161     
   1100.6325701328187     
   1100.2282642723069     
   1099.5453742564696     
   1099.3613448564422     
   1099.9579452578128     
   1099.7441752283553     
   1099.6931010216688     
   1099.7515482985170     
   1099.8068123574124     
   1099.7559573353892     
   1099.5701800077998     
   1099.3098649879271     
   1098.5221268924224     
   1098.8409517082196     
   1100.3011849204513     
   1100.6412894809303     
   1099.6561189171623     
   1100.0906734993355     
   1100.7313993397665     
   1100.3923079637302     
   1100.7342216667057     
   1100.4986326231895     
   1100.3542074993809     
   1100.4896370580143     
   1099.3607352013660     
   1100.6375198424905     
   1099.3060666240369     
   1100.4104501645736     
   1099.9813194681294     
   1099.4995935307227     
   1099.7363917071957     
   1099.9082424429314     
   1099.5605937159005     
   1099.0462160016193     
   1099.2230144544656     
   1099.5823779029529     
   1099.9607296815036     
   1100.1932044155571     
   1100.1796736010324     
   1099.9230768838258     
   1099.6352148802582     
   1099.5838088827729     
   1099.8462943947548     
   1098.6002186158462     
   1099.2452873460506     
   1099.8794467396244     
   1100.2930328960038     
   1099.5381196872956     
   1100.2059100992917     
   1099.7769801824736     
   1100.2549686334930     
   1099.3523395784950     
   1098.8000878274415     
   1100.2718249890163     
   1098.7027352194693     
   1100.0934502460650     
   1099.0500257955666     
   1099.6841746110761     
   1099.5118778449275     
   1099.1515175008014     
   1099.9433061231505     
   1098.6854932102679     
   1098.4554160283401     
   1100.1566901694819     
   1099.0416149008852     
   1099.6941090681478     
   1100.0172329811660     
   1098.9009465678525     
   1100.1979862501116     
   1100.2177151254145     
   1099.5892825984777     
   1098.7160845775652     
   1098.4011378211003     
   1099.0973132617055     
   1099.0415354940708     
   1098.4487442594402     
   1098.5754197309209     
   1098.3330108380048     
   1099.4906718442435     
   1102.1735110835245     
   1099.1101628995216     
   1099.0284890691050     
   1099.4214989186464     
   1098.3371262105834     
   1099.6641472855874     
   1098.4235007799134     
   1098.7782958297121     
   1099.2104763575987     
   1099.5112713860317     
   1099.4939327496520     
   1099.4057708006299     
   1100.1755208513719     
   1099.5278295527798     
   1098.2204507892122     
   1098.3029746522238     
   1099.1302696944333     
   1100.1421594173023     
   1100.0646590756241     
   1099.0086723627473     
   1098.8700328347120     
   1098.9114741940086     
   1098.5565500138725     
   1099.6098028184210     
   1098.7992423920771     
   1098.5590913363751     
   1099.8148562843426     
   1098.6554810567095     
   1099.2802570589713     
   1098.8431974170694     
   1099.8149454008365     
   1098.7385583616388     
   1100.3999088279679     
   1100.5933154884208     
   1100.2844758718979     
   1099.6134032115356     
   1098.4801864440349     
   1099.9916017017060     
   1101.8725595253995     
   1101.0495999435896     
   1100.7821755193411     
   1101.4011703371089     
   1099.6587754920420     
   1100.3084177887656     
   1101.1560509978151     
   1100.1080773986475     
   1100.9030655618380     
   1099.0673844425789     
   1101.3678646893484     
   1099.4627002157247     
   1099.8486557053614     
   1100.2047508902283     
   1098.9099337705409     
   1101.6653104100246     
   1101.7937313037237     
   1101.3652843551231     
   1100.5176563664454     
   1098.7086069326920     
   1098.3072828236334     
   1101.5150413057795     
   1100.0499919394297     
   1100.7853910158033     
   1101.5215491308802     
   1099.7375075327830     
   1101.7232335564281     
   1101.8885745345028     
   1102.1150816347715     
   1102.2261060641372     
   1102.0698314372660     
   1100.3176652488553     
   1101.1360389296437     
   1101.8889781123473     
   1099.4470150944967     
   1102.2761669247825     
   1099.0818678894293     
   1102.1830734626092     
   1101.7257514631774     
   1101.1389242107286     
   1100.6057128553764     
   1099.8374782175706     
   1101.1473131348712     
   1101.1191213506820     
   1100.2530694181294     
   1100.9646044772792     
   1101.6513125433257     
   1100.8202100413428     
   1101.5623505792464     
   1100.8443238499478     
   1102.0502862233802     
   1100.9139854989419     
   1102.0187882204473     
   1101.2808585107246     
   1101.2031311064459     
   1100.8902120910975     
   1100.5671949931291     
   1100.7550313398226     
   1101.3154845793431     
   1102.0972440100020     
   1101.9545930694635     
   1102.9127474196709     
   1101.7366841384019     
   1103.5263683732833     
   1103.4578059687756     
   1102.5966314458092     
   1103.7401581325814     
   1104.1057842383723     
   1103.7680062092170     
   1104.4934481192622     
   1103.9945284247062     
   1102.6380630958345     
   1104.1520328390779     
   1103.2189674951774     
   1104.1760331779708     
   1104.2230047392402     
   1103.5833275904045     
   1102.8833750415081     
   1102.9217266095843     
   1102.2444714335979     
   1101.5000610200891     
   1101.1988212641015     
   1099.9613401680444     
   1100.0005335933674     
   1099.9868730056369     
   1099.9999998650708     
   1099.9999998972369     
   1100.0000000000000     
   1099.9585978663520     
   1100.0093253596947     
   1099.9563751058690     
   1099.8718088556295     
   1099.8538093264588     
   1099.9785343988117     
   1099.9525836007524     
   1099.9415235415972     
   1100.1171357404521     
   1100.2320367273246     
   1099.8920335104413     
   1099.8710469192090     
   1099.8992045419811     
   1099.8457239081615     
   1099.9314245820708     
   1100.1020870466159     
   1100.0206393768078     
   1100.0486300347427     
   1099.9735511842052     
   1099.9663311291376     
   1099.8589432827669     
   1099.9729237660165     
   1100.1022315636308     
   1100.0814839224424     
   1099.8178438513930     
   1099.9236772494112     
   1099.9870292652720     
   1099.9668960792692     
   1099.9322921942501     
   1099.9231083612149     
   1099.9365241032147     
   1099.9519061208257     
   1099.9631417123283     
   1099.9636505276496     
   1100.0036251301576     
   1099.9468326057870     
   1099.9226277588716     
   1099.9494892175223     
   1099.8867971505226     
   1099.8621066028959     
   1100.1050531287617     
   1099.8657829750036     
   1099.8935063361087     
   1099.9153397807427     
   1099.9139751754433     
   1099.9174878461297     
   1099.9904519220001     
   1099.9815710954711     
   1099.9679403988725     
   1099.9565266617476     
   1099.9512634736809     
   1100.0476091054250     
   1099.9800711506184     
   1099.9880087460056     
   1100.0007096268287     
   1100.0923031589136     
   1100.0875974545347     
   1100.0842662334596     
   1100.0626488618918     
   1100.0953409457445     
   1100.1274772379932     
   1100.1569907703188     
   1100.1813488147725     
   1100.0448800935301     
   1100.0288513644687     
   1100.0998337855203     
   1100.1143915030200     
   1100.1020226492526     
   1100.0553410960140     
   1099.9825971970995     
   1099.8451136143665     
   1099.8576471066285     
   1099.8988671106604     
   1099.9537367056435     
   1100.0351485681053     
   1100.0957175308845     
   1100.0445911266054     
   1100.0376965604687     
   1100.0251609770528     
   1099.9013818968069     
   1100.0168612510156     
   1099.9642298352730     
   1100.0181585604014     
   1100.0218200573129     
   1100.0587244585586     
   1099.8166106572535     
   1100.0611567799501     
   1100.0699361422344     
   1100.0735869442221     
   1100.0618307074687     
   1100.0801236946349     
   1100.0472269302031     
   1100.0810467780718     
   1100.0381634649805     
   1100.0782574165053     
   1100.0413731218221     
   1100.0750369887517     
   1100.0567831632204     
   1100.0752404736672     
   1100.0792881770965     
   1099.7275439266023     
   1100.0949217261154     
   1100.1201240703190     
   1100.1297366663443     
   1100.1305719244747     
   1100.1243893430708     
   1099.8258683930444     
   1100.1138780908254     
   1100.1005659796615     
   1100.0586034846765     
   1100.0149164111940     
   1100.5954336622924     
   1100.4455706782417     
   1099.7159978960215     
   1100.0546231597436     
   1100.1743891591082     
   1100.1091093755310     
   1100.0775771632675     
   1100.0585165455993     
   1100.0530376916365     
   1099.9050906207599     
   1099.9919454744017     
   1100.0752774360353     
   1100.0580313331752     
   1099.9902190527803     
   1100.0705474388142     
   1100.1222863779697     
   1100.1348100678676     
   1100.1441400547767     
   1100.1156146786882     
   1100.1945391021566     
   1100.0837183927006     
   1100.2022612442668     
   1100.0592170407151     
   1100.1973481051848     
   1100.0717290480832     
   1100.1044208648414     
   1100.1428654152414     
   1100.1774327703049     
   1100.2017571473141     
   1100.2132461460260     
   1100.2115940470187     
   1100.1976635514170     
   1100.1729242304791     
   1100.1395209689761     
   1099.9711949050804     
   1099.9216786738507     
   1099.6414752013036     
   1099.6490777006211     
   1099.8647791810201     
   1099.8896706005935     
   1100.0491954266954     
   1100.1796302831622     
   1100.1793822750599     
   1100.1673030989605     
   1100.1961433855938     
   1099.9847556286763     
   1100.1117558198525     
   1100.0957138773583     
   1100.1582494798515     
   1100.1722853344759     
   1100.1439449245834     
   1099.9568272382446     
   1100.0332547934484     
   1100.0410865560934     
   1100.1735820551537     
   1100.0700967448581     
   1100.1897311909761     
   1100.1079145626261     
   1100.1577005918887     
   1100.1427204211022     
   1100.1011173452316     
   1100.0481339023456     
   1099.9835958142012     
   1100.0193861520527     
   1100.1694316267130     
   1100.0217132071550     
   1100.1498006624490     
   1100.0480217080390     
   1100.1215164247985     
   1100.0837263268245     
   1100.0850046026476     
   1100.1153581040771     
   1100.0409250649586     
   1100.1353964662869     
   1099.9908641329980     
   1100.1422503711894     
   1100.1381255898946     
   1100.1260493774785     
   1100.1076626871497     
   1100.0831422889325     
   1100.0522874971482     
   1099.8150932755577     
   1099.8043961761443     
   1100.0523966526287     
   1099.9835688041117     
   1100.0639845767030     
   1100.0739466730543     
   1100.0320065471403     
   1100.0000661168460     
   1100.1962368290056     
   1100.2200358045545     
   1100.1839464449949     
   1100.0380027537581     
   1100.0074730436968     
   1100.0406366093284     
   1100.0115752530962     
   1100.0660151735021     
   1100.0329643417811     
   1099.9783727865315     
   1100.0412820287343     
   1099.9672045820359     
   1100.0126531578585     
   1099.9898673705191     
   1099.9570279553163     
   1100.0243734199737     
   1099.9336979049281     
   1099.9121171543738     
   1100.0334535995730     
   1099.9992704122863     
   1099.8370714008463     
   1099.9588406247199     
   1099.9196112160025     
   1099.8857584629668     
   1099.8394177067205     
   1099.6520399047779     
   1099.6809281561789     
   1100.0069553490964     
   1099.7379012334022     
   1099.7785469202659     
   1099.8296800549999     
   1099.8669645947796     
   1099.9513851822469     
   1100.2164918581527     
   1100.1274169014812     
   1100.0237944235510     
   1099.9317044190605     
   1100.2243447725473     
   1100.1325336999857     
   1100.0343430417317     
   1100.0198312477364     
   1100.0042250234767     
   1099.9373780030962     
   1099.9511057147420     
   1099.9119155362346     
   1099.8891723492777     
   1099.9382156970519     
   1099.9879761985546     
   1100.3565767599366     
   1100.0275526026983     
   1099.7087010223236     
   1100.0343036685956     
   1099.6925305429470     
   1100.0031799378498     
   1099.6908076904692     
   1099.9446223779071     
   1099.7034566355887     
   1099.8755439087506     
   1099.8096065968568     
   1099.7532031292810     
   1099.7075726153428     
   1099.6723480281960     
   1099.6588972642221     
   1099.6733411928215     
   1099.8270928842830     
   1099.6356544952271     
   1099.6602377146396     
   1099.7581842406050     
   1099.8099244959833     
   1099.8218841229625     
   1099.8798808574418     
   1099.9538720785013     
   1100.0107815032759     
   1100.0193368566906     
   1099.9102925711702     
   1100.0152059454790     
   1100.1426954787235     
   1099.8684298297605     
   1099.8934288026403     
   1099.9562722845353     
   1100.0151682967708     
   1100.0160498101336     
   1100.0371028256488     
   1099.8988506333399     
   1099.9507460148295     
   1099.8770807478288     
   1099.9349814365573     
   1100.0040757394270     
   1099.7201031506186     
   1100.0352704519016     
   1099.6889579715626     
   1100.0148767038422     
   1099.9552947510238     
   1099.6230479332878     
   1099.8818848883552     
   1099.6318036208008     
   1099.6665570525774     
   1099.7746789352084     
   1099.7504099669732     
   1099.7343708624358     
   1099.6919017418845     
   1099.6687293167236     
   1099.8873256202912     
   1099.8550220957341     
   1099.8922622041418     
   1099.8774792505728     
   1099.9311343272177     
   1099.8096315519692     
   1099.8840073831602     
   1099.8031967067332     
   1099.8821184209451     
   1099.9689428766494     
   1099.7855260429469     
   1099.7803495325402     
   1099.8516165971860     
   1099.7991829145742     
   1099.9458045896602     
   1099.8119364270885     
   1100.0062923834994     
   1099.8450446060299     
   1100.0044188952695     
   1099.9480845724474     
   1099.8714028183870     
   1099.8828031309206     
   1099.8129131234605     
   1099.8256149879273     
   1099.7971263008269     
   1099.9535530154449     
   1100.0026250113067     
   1100.0206726275808     
   1100.4157295145046     
   1100.2842896581137     
   1100.3111475454427     
   1100.1575017162977     
   1100.0352304168630     
   1099.9755978558014     
   1099.8939628756420     
   1099.9891184198291     
   1099.9341426323813     
   1099.8479162967242     
   1099.7797555185834     
   1099.7659652744776     
   1099.9597763850079     
   1099.9170036192161     
   1100.0398603790734     
   1099.8391846477243     
   1100.2488073596730     
   1099.7620884402149     
   1100.3013078531112     
   1099.7431884697712     
   1099.7967884895347     
   1099.9087243984300     
   1100.0501940945207     
   1100.1918628342357     
   1100.3120442502220     
   1100.3983418683317     
   1100.4522013170640     
   1100.6191175215661     
   1100.5429723272193     
   1100.1922690291126     
   1100.3307720225930     
   1100.4467213408109     
   1100.1869069650395     
   1100.3142547512905     
   1100.5058026246597     
   1100.3202395872963     
   1100.3650911850491     
   1100.3680144216448     
   1100.3209129887548     