# vtk DataFile Version 3.1
Mesh with Data
ASCII
DATASET UNSTRUCTURED_GRID
POINTS         7552 float
      0.200000E+03      0.000000E+00      0.200000E+03
      0.000000E+00      0.000000E+00      0.200000E+03
      0.197500E+03      0.000000E+00      0.200000E+03
      0.195000E+03      0.000000E+00      0.200000E+03
      0.192500E+03      0.000000E+00      0.200000E+03
      0.190000E+03      0.000000E+00      0.200000E+03
      0.187500E+03      0.000000E+00      0.200000E+03
      0.185000E+03      0.000000E+00      0.200000E+03
      0.182500E+03      0.000000E+00      0.200000E+03
      0.180000E+03      0.000000E+00      0.200000E+03
      0.177500E+03      0.000000E+00      0.200000E+03
      0.175000E+03      0.000000E+00      0.200000E+03
      0.172500E+03      0.000000E+00      0.200000E+03
      0.170000E+03      0.000000E+00      0.200000E+03
      0.167500E+03      0.000000E+00      0.200000E+03
      0.165000E+03      0.000000E+00      0.200000E+03
      0.162500E+03      0.000000E+00      0.200000E+03
      0.160000E+03      0.000000E+00      0.200000E+03
      0.157500E+03      0.000000E+00      0.200000E+03
      0.155000E+03      0.000000E+00      0.200000E+03
      0.152500E+03      0.000000E+00      0.200000E+03
      0.150000E+03      0.000000E+00      0.200000E+03
      0.147500E+03      0.000000E+00      0.200000E+03
      0.145000E+03      0.000000E+00      0.200000E+03
      0.142500E+03      0.000000E+00      0.200000E+03
      0.140000E+03      0.000000E+00      0.200000E+03
      0.137500E+03      0.000000E+00      0.200000E+03
      0.135000E+03      0.000000E+00      0.200000E+03
      0.132500E+03      0.000000E+00      0.200000E+03
      0.130000E+03      0.000000E+00      0.200000E+03
      0.127500E+03      0.000000E+00      0.200000E+03
      0.125000E+03      0.000000E+00      0.200000E+03
      0.122500E+03      0.000000E+00      0.200000E+03
      0.120000E+03      0.000000E+00      0.200000E+03
      0.117500E+03      0.000000E+00      0.200000E+03
      0.115000E+03      0.000000E+00      0.200000E+03
      0.112500E+03      0.000000E+00      0.200000E+03
      0.110000E+03      0.000000E+00      0.200000E+03
      0.107500E+03      0.000000E+00      0.200000E+03
      0.105000E+03      0.000000E+00      0.200000E+03
      0.102500E+03      0.000000E+00      0.200000E+03
      0.100000E+03      0.000000E+00      0.200000E+03
      0.975000E+02      0.000000E+00      0.200000E+03
      0.950000E+02      0.000000E+00      0.200000E+03
      0.925000E+02      0.000000E+00      0.200000E+03
      0.900000E+02      0.000000E+00      0.200000E+03
      0.875000E+02      0.000000E+00      0.200000E+03
      0.850000E+02      0.000000E+00      0.200000E+03
      0.825000E+02      0.000000E+00      0.200000E+03
      0.800000E+02      0.000000E+00      0.200000E+03
      0.775000E+02      0.000000E+00      0.200000E+03
      0.750000E+02      0.000000E+00      0.200000E+03
      0.725000E+02      0.000000E+00      0.200000E+03
      0.700000E+02      0.000000E+00      0.200000E+03
      0.675000E+02      0.000000E+00      0.200000E+03
      0.650000E+02      0.000000E+00      0.200000E+03
      0.625000E+02      0.000000E+00      0.200000E+03
      0.600000E+02      0.000000E+00      0.200000E+03
      0.575000E+02      0.000000E+00      0.200000E+03
      0.550000E+02      0.000000E+00      0.200000E+03
      0.525000E+02      0.000000E+00      0.200000E+03
      0.500000E+02      0.000000E+00      0.200000E+03
      0.475000E+02      0.000000E+00      0.200000E+03
      0.450000E+02      0.000000E+00      0.200000E+03
      0.425000E+02      0.000000E+00      0.200000E+03
      0.400000E+02      0.000000E+00      0.200000E+03
      0.375000E+02      0.000000E+00      0.200000E+03
      0.350000E+02      0.000000E+00      0.200000E+03
      0.325000E+02      0.000000E+00      0.200000E+03
      0.300000E+02      0.000000E+00      0.200000E+03
      0.275000E+02      0.000000E+00      0.200000E+03
      0.250000E+02      0.000000E+00      0.200000E+03
      0.225000E+02      0.000000E+00      0.200000E+03
      0.200000E+02      0.000000E+00      0.200000E+03
      0.175000E+02      0.000000E+00      0.200000E+03
      0.150000E+02      0.000000E+00      0.200000E+03
      0.125000E+02      0.000000E+00      0.200000E+03
      0.100000E+02      0.000000E+00      0.200000E+03
      0.750000E+01      0.000000E+00      0.200000E+03
      0.500000E+01      0.000000E+00      0.200000E+03
      0.250000E+01      0.000000E+00      0.200000E+03
      0.000000E+00      0.000000E+00      0.000000E+00
      0.000000E+00      0.000000E+00      0.197500E+03
      0.000000E+00      0.000000E+00      0.195000E+03
      0.000000E+00      0.000000E+00      0.192500E+03
      0.000000E+00      0.000000E+00      0.190000E+03
      0.000000E+00      0.000000E+00      0.187500E+03
      0.000000E+00      0.000000E+00      0.185000E+03
      0.000000E+00      0.000000E+00      0.182500E+03
      0.000000E+00      0.000000E+00      0.180000E+03
      0.000000E+00      0.000000E+00      0.177500E+03
      0.000000E+00      0.000000E+00      0.175000E+03
      0.000000E+00      0.000000E+00      0.172500E+03
      0.000000E+00      0.000000E+00      0.170000E+03
      0.000000E+00      0.000000E+00      0.167500E+03
      0.000000E+00      0.000000E+00      0.165000E+03
      0.000000E+00      0.000000E+00      0.162500E+03
      0.000000E+00      0.000000E+00      0.160000E+03
      0.000000E+00      0.000000E+00      0.157500E+03
      0.000000E+00      0.000000E+00      0.155000E+03
      0.000000E+00      0.000000E+00      0.152500E+03
      0.000000E+00      0.000000E+00      0.150000E+03
      0.000000E+00      0.000000E+00      0.147500E+03
      0.000000E+00      0.000000E+00      0.145000E+03
      0.000000E+00      0.000000E+00      0.142500E+03
      0.000000E+00      0.000000E+00      0.140000E+03
      0.000000E+00      0.000000E+00      0.137500E+03
      0.000000E+00      0.000000E+00      0.135000E+03
      0.000000E+00      0.000000E+00      0.132500E+03
      0.000000E+00      0.000000E+00      0.130000E+03
      0.000000E+00      0.000000E+00      0.127500E+03
      0.000000E+00      0.000000E+00      0.125000E+03
      0.000000E+00      0.000000E+00      0.122500E+03
      0.000000E+00      0.000000E+00      0.120000E+03
      0.000000E+00      0.000000E+00      0.117500E+03
      0.000000E+00      0.000000E+00      0.115000E+03
      0.000000E+00      0.000000E+00      0.112500E+03
      0.000000E+00      0.000000E+00      0.110000E+03
      0.000000E+00      0.000000E+00      0.107500E+03
      0.000000E+00      0.000000E+00      0.105000E+03
      0.000000E+00      0.000000E+00      0.102500E+03
      0.000000E+00      0.000000E+00      0.100000E+03
      0.000000E+00      0.000000E+00      0.975000E+02
      0.000000E+00      0.000000E+00      0.950000E+02
      0.000000E+00      0.000000E+00      0.925000E+02
      0.000000E+00      0.000000E+00      0.900000E+02
      0.000000E+00      0.000000E+00      0.875000E+02
      0.000000E+00      0.000000E+00      0.850000E+02
      0.000000E+00      0.000000E+00      0.825000E+02
      0.000000E+00      0.000000E+00      0.800000E+02
      0.000000E+00      0.000000E+00      0.775000E+02
      0.000000E+00      0.000000E+00      0.750000E+02
      0.000000E+00      0.000000E+00      0.725000E+02
      0.000000E+00      0.000000E+00      0.700000E+02
      0.000000E+00      0.000000E+00      0.675000E+02
      0.000000E+00      0.000000E+00      0.650000E+02
      0.000000E+00      0.000000E+00      0.625000E+02
      0.000000E+00      0.000000E+00      0.600000E+02
      0.000000E+00      0.000000E+00      0.575000E+02
      0.000000E+00      0.000000E+00      0.550000E+02
      0.000000E+00      0.000000E+00      0.525000E+02
      0.000000E+00      0.000000E+00      0.500000E+02
      0.000000E+00      0.000000E+00      0.475000E+02
      0.000000E+00      0.000000E+00      0.450000E+02
      0.000000E+00      0.000000E+00      0.425000E+02
      0.000000E+00      0.000000E+00      0.400000E+02
      0.000000E+00      0.000000E+00      0.375000E+02
      0.000000E+00      0.000000E+00      0.350000E+02
      0.000000E+00      0.000000E+00      0.325000E+02
      0.000000E+00      0.000000E+00      0.300000E+02
      0.000000E+00      0.000000E+00      0.275000E+02
      0.000000E+00      0.000000E+00      0.250000E+02
      0.000000E+00      0.000000E+00      0.225000E+02
      0.000000E+00      0.000000E+00      0.200000E+02
      0.000000E+00      0.000000E+00      0.175000E+02
      0.000000E+00      0.000000E+00      0.150000E+02
      0.000000E+00      0.000000E+00      0.125000E+02
      0.000000E+00      0.000000E+00      0.100000E+02
      0.000000E+00      0.000000E+00      0.750000E+01
      0.000000E+00      0.000000E+00      0.500000E+01
      0.000000E+00      0.000000E+00      0.250000E+01
      0.200000E+03      0.000000E+00      0.000000E+00
      0.250000E+01      0.000000E+00      0.000000E+00
      0.500000E+01      0.000000E+00      0.000000E+00
      0.750000E+01      0.000000E+00      0.000000E+00
      0.100000E+02      0.000000E+00      0.000000E+00
      0.125000E+02      0.000000E+00      0.000000E+00
      0.150000E+02      0.000000E+00      0.000000E+00
      0.175000E+02      0.000000E+00      0.000000E+00
      0.200000E+02      0.000000E+00      0.000000E+00
      0.225000E+02      0.000000E+00      0.000000E+00
      0.250000E+02      0.000000E+00      0.000000E+00
      0.275000E+02      0.000000E+00      0.000000E+00
      0.300000E+02      0.000000E+00      0.000000E+00
      0.325000E+02      0.000000E+00      0.000000E+00
      0.350000E+02      0.000000E+00      0.000000E+00
      0.375000E+02      0.000000E+00      0.000000E+00
      0.400000E+02      0.000000E+00      0.000000E+00
      0.425000E+02      0.000000E+00      0.000000E+00
      0.450000E+02      0.000000E+00      0.000000E+00
[...]
CELL_DATA        14782
SCALARS model_vp float
LOOKUP_TABLE default
   1099.8235063085492     
   1100.3204685480650     
   1100.3117814163645     
   1100.0613574516603     
   1099.7367211125220     
   1100.2336902999145     
   1099.7297667629969     
   1099.9204271653255     
   1099.8032737685223     
   1099.7373203265017     
   1099.8462715102398     
   1099.7971302009912     
   1099.7733567253495     
   1099.8157189333717     
   1099.8937410981662     
   1100.5737395587232     
   1100.2136508025501     
   1099.8388880220880     
   1099.8178514438944     
   1099.8912308243275     
   1099.8424904015812     
   1099.9692003530799     
   1099.7602591494920     
   1099.9203500583396     
   1099.9397808099188     
   1099.8077704554582     
   1099.7423401943556     
   1099.9072054075243     
   1099.9418329972282     
   1099.9024022860247     
   1099.8172915081227     
   1099.7432212858323     
   1099.7927318723853     
   1099.9123410461150     
   1100.5627044047353     
   1100.0508438483646     
   1100.5747522283707     
   1100.6359778428748     
   1100.6147404441833     
   1100.4781926275768     
   1100.1277533260536     
   1100.2823915812439     
   1100.4099955444399     
   1100.4565548036492     
   1099.7836588785235     
   1099.8692156136606     
   1099.9461899856581     
   1099.8828426150162     
   1099.9548792859669     
   1099.9296766816838     
   1100.4552400032301     
   1099.7540375021395     
   1099.8690023567381     
   1099.8105128900590     
   1099.9622455886949     
   1099.9367527152124     
   1099.9755268890233     
   1100.0849298285443     
   1099.9097162673820     
   1100.2050845402853     
   1099.8225626885812     
   1099.7857749574848     
   1100.0463879399069     
   1100.3147711452441     
   1099.9697317587663     
   1100.3845425556724     
   1100.1272572406240     
   1100.4952055572196     
   1100.2524115322699     
   1100.3082750129608     
   1098.7130022621582     
   1099.4666786192026     
   1100.4537380836391     
   1100.5892936932751     
   1100.1321914310188     
   1100.0090345142894     
   1099.8459154935128     
   1099.9937693620932     
   1100.0649183750070     
   1099.9267307033849     
   1100.1563698222258     
   1100.0368764597947     
   1100.1270249629731     
   1100.0083104213588     
   1099.8825135237682     
   1100.0628115770057     
   1100.3687413828459     
   1100.2460026634462     
   1100.3961119083503     
   1099.9436877526337     
   1099.9810520805513     
   1100.1194361850096     
   1098.6258247393043     
   1100.0057682356176     
   1099.9609981796643     
   1100.5500734275608     
   1100.5014137118287     
   1099.2516714294600     
   1100.2878612382929     
   1100.3531167242363     
   1100.1571563690743     
   1099.9740622259008     
   1099.8537269683727     
   1099.8834929935360     
   1100.0084717995398     
   1098.5211709865860     
   1100.2556970012829     
   1100.0598127995709     
   1100.6226330549614     
   1100.2235608566261     
   1100.2764880350933     
   1100.2566952309480     
   1100.0771084951298     
   1100.0956535363212     
   1100.4282860466785     
   1100.1914279150303     
   1100.7197814635006     
   1100.1463695303191     
   1100.6787446935061     
   1100.1524553052247     
   1100.5151500164595     
   1100.2679657036515     
   1100.2837580590099     
   1100.4713435983524     
   1100.6746283702162     
   1099.7000685859189     
   1100.7822530218943     
   1099.6122467744115     
   1100.7439640665232     
   1099.5842584075685     
   1099.6167132083315     
   1100.3326745371303     
   1100.0908705011127     
   1099.3905630945535     
   1099.8919938631407     
   1099.7427332201130     
   1099.6272752931661     
   1099.5339581962069     
   1099.4729784510821     
   1099.5048642104018     
   1099.2468790122475     
   1100.0950188629854     
   1100.0676778717211     
   1099.8664684811590     
   1099.6072761950368     
   1100.5070066811852     
   1100.7939537093634     
   1100.8350428123986     
   1100.3731935346623     
   1100.3313550642663     
   1100.6085436994381     
   1100.5111474658784     
   1100.7160625238891     
   1100.3049755827308     
   1098.7101122663930     
   1100.5964952236525     
   1100.3515751801776     
   1100.3180327776990     
   1100.7029373116281     
   1099.8930438954396     
   1100.8232057743799     
   1099.8234107461840     
   1100.7797352255802     
   1099.7959062180892     
   1100.5650891612549     
   1100.2214993834468     
   1099.6045899261499     
   1099.4183610162340     
   1099.9686791623528     
   1099.7990920177340     
   1099.7713103074384     
   1099.8287003709631     
   1099.8683349615842     
   1099.8023405227273     
   1099.6120722938290     
   1099.3578370995194     
   1098.6551022381500     
   1099.0091672718854     
   1100.2796521147827     
   1100.5909748208719     
   1099.6901483562337     
   1100.0635978842495     
   1100.6767931202201     
   1100.4062295272497     
   1100.7205872670868     
   1100.4371167019815     
   1100.4147702203070     
   1100.5323120506475     
   1099.4551323835858     
   1100.6323108267554     
   1099.4344127810898     
   1100.3485169994135     
   1099.9527090205438     
   1099.5366162246248     
   1099.7505819915068     
   1099.9136416685037     
   1099.5883888810911     
   1099.1966575868980     
   1099.3754425376189     
   1099.6978602164295     
   1100.0199235023169     
   1100.2030547539280     
   1100.1682141784802     
   1099.9256171770853     
   1099.6353743328934     
   1099.5726456935220     
   1099.8850783705702     
   1098.7670995195031     
   1099.2700818652854     
   1099.8208909600962     
   1100.3508562858642     
   1099.4778031909254     
   1100.1416357179737     
   1099.7360922336111     
   1100.2794998957249     
   1099.4485343461361     
   1098.9052983518998     
   1100.2405734408130     
   1098.8895433328689     
   1100.0294970609871     
   1099.2113764081121     
   1099.6358047134215     
   1099.6165458364935     
   1099.1647144338856     
   1099.9839731782963     
   1098.7799943923314     
   1098.6162415382742     
   1100.1570553090994     
   1099.0617966873449     
   1099.7510780180558     
   1100.0252810097152     
   1098.9044023871274     
   1100.1835234484943     
   1100.2130507250909     
   1099.6026784731753     
   1098.8619097035148     
   1098.5640360638995     
   1099.0543246872794     
   1099.0301846441021     
   1098.5419236573262     
   1098.6410072454416     
   1098.4666544860486     
   1099.4263993066415     
   1101.9909709169701     
   1099.2086263332124     
   1099.0057550924594     
   1099.4688975560014     
   1098.4552998995089     
   1099.6677065906151     
   1098.5700859060455     
   1098.9040236736739     
   1099.2828468429454     
   1099.5292675593132     
   1099.4862235138980     
   1099.4240374335411     
   1100.1941820637267     
   1099.4755099657177     
   1098.3537002316018     
   1098.4005516884779     
   1099.2192804267934     
   1100.0369663409833     
   1100.0042704294149     
   1099.1030738276875     
   1098.9295835148610     
   1099.0216731869029     
   1098.6797077618464     
   1099.6300355808103     
   1098.8098434446415     
   1098.6413374296778     
   1099.7218273492545     
   1098.7724783118629     
   1099.2461637305910     
   1098.8837202642032     
   1099.8215586284130     
   1098.8380379707248     
   1100.3086677776698     
   1100.4376861729509     
   1100.1297030285521     
   1099.5224152741935     
   1098.5674894221327     
   1099.9912443229143     
   1101.8611435595235     
   1100.9536522580079     
   1100.5650677433130     
   1101.1886119633925     
   1099.7774630591509     
   1100.3743554413645     
   1101.1072864663570     
   1100.1210010152902     
   1100.7955745991831     
   1099.1733553130562     
   1101.1125306786223     
   1099.5663231820706     
   1099.7329032010309     
   1100.2320123762020     
   1098.9147844259087     
   1101.4510901550893     
   1101.5162649206486     
   1101.1046572342261     
   1100.3444783649497     
   1098.7634187459450     
   1098.4183184636079     
   1101.3819867961952     
   1100.0238520588498     
   1100.6599928203871     
   1101.2990403524473     
   1099.8618308005452     
   1101.6397882039184     
   1101.7116378031139     
   1101.9058312812933     
   1101.9619423328818     
   1101.7913055862259     
   1100.4041361605584     
   1101.1165331788238     
   1101.7415689702675     
   1099.4888813656942     
   1102.0362078944765     
   1099.1406262048226     
   1101.9218622247165     
   1101.5131615605496     
   1101.0135471020617     
   1100.5669540718261     
   1099.8704422865026     
   1101.1786997244840     
   1101.0524416728169     
   1100.3759315247780     
   1101.0040213581158     
   1101.4931366976562     
   1100.8880228894088     
   1101.5113444823346     
   1100.8577117327209     
   1101.8954170476288     
   1100.9617973554464     
   1101.8319805145338     
   1101.2589105980687     
   1101.1065417709021     
   1100.8603484279531     
   1100.6295044410722     
   1100.8522648834028     
   1101.3807881297416     
   1101.9956036739998     
   1101.7650796296887     
   1102.8410295948502     
   1101.8052909022094     
   1103.3358795405554     
   1103.1893407620735     
   1102.5595175804524     
   1103.5570457926815     
   1103.8329255677775     
   1103.4564407642390     
   1104.1595115019413     
   1103.7108377303041     
   1102.4963949068442     
   1103.8472976192620     
   1102.9336877846833     
   1103.8152725132409     
   1103.8938652830670     
   1103.3480256397595     
   1102.5996392237394     
   1102.5342518167795     
   1102.1329575454322     
   1101.2647941296339     
   1101.0916699617194     
   1099.9600044654915     
   1099.9840078116745     
   1099.9880539757667     
   1099.9999998763717     
   1099.9999999015863     
   1100.0000000000000     
   1099.9858961622369     
   1100.0301550580239     
   1099.9874356274288     
   1099.9151388197938     
   1099.8904678274710     
   1100.0056080853146     
   1099.9788515986650     
   1099.9751797220454     
   1100.0851060635007     
   1100.1727417154625     
   1099.9281322187280     
   1099.9141918111011     
   1099.9357516560378     
   1099.9092930128832     
   1099.9669112673337     
   1100.0803148805360     
   1100.0367172162953     
   1100.0598471696089     
   1099.9973253581461     
   1099.9923608675840     
   1099.8822718039826     
   1099.9810729952933     
   1100.0940109941209     
   1100.0782195905767     
   1099.8440848156986     
   1099.9602748476818     
   1099.9863569263673     
   1099.9754039268819     
   1099.9539069501038     
   1099.9448225190567     
   1099.9499042603982     
   1099.9582849136191     
   1099.9663302849729     
   1099.9691773764794     
   1099.9997975667052     
   1099.9721162008373     
   1099.9474861407077     
   1099.9629264660632     
   1099.9249177194065     
   1099.9062009979177     
   1100.0691882316892     
   1099.9087342399239     
   1099.9280586817727     
   1099.9444278417120     
   1099.9480628834892     
   1099.9538987104015     
   1099.9867837079250     
   1099.9810029810824     
   1099.9745696965545     
   1099.9715781060133     
   1099.9733682361198     
   1100.0594610408300     
   1100.0017251517629     
   1100.0080989805256     
   1100.0193159325620     
   1100.0778771573634     
   1100.0789892168355     
   1100.0874704852317     
   1100.0447900958641     
   1100.0645004688995     
   1100.0841732153360     
   1100.1039305701429     
   1100.1227340132493     
   1100.0524336988944     
   1100.0385699157757     
   1100.0609628820994     
   1100.0708148237425     
   1100.0638417640025     
   1100.0323018420772     
   1099.9800748786795     
   1099.8876007459455     
   1099.8971790736182     
   1099.9275310497312     
   1099.9662991663636     
   1100.0195983532647     
   1100.0592328017535     
   1100.0248770170713     
   1100.0212716705664     
   1100.0168287940448     
   1099.9262120533404     
   1100.0176149447673     
   1099.9715842880573     
   1100.0255670913987     
   1100.0112426993744     
   1100.0351879922518     
   1099.8667556371197     
   1100.0633506873028     
   1100.0417412683491     
   1100.0692789135878     
   1100.0372683115397     
   1100.0702802729741     
   1100.0315971765219     
   1100.0681832529115     
   1100.0324183970426     
   1100.0655390652571     
   1100.0425393558078     
   1100.0651331605441     
   1100.0596598217980     
   1100.0692239938396     
   1100.0785371931138     
   1099.7628786364633     
   1100.0912065678733     
   1100.1029505820864     
   1100.1046024768236     
   1100.1004289897271     
   1100.0932616693219     
   1099.8503339427809     
   1100.0858691621393     
   1100.0584796174851     
   1100.0307489813608     
   1099.9823261465781     
   1100.4963571274113     
   1100.3669786814305     
   1099.7909824779974     
   1100.0468377789794     
   1100.1410032734384     
   1100.0989773545623     
   1100.0727513234956     
   1100.0519430609620     
   1100.0346520773167     
   1099.9219726517342     
   1100.0014349597286     
   1100.0477147352792     
   1100.0429173895284     
   1099.9835340673437     
   1100.0423708314788     
   1100.0779887926985     
   1100.0847975140152     
   1100.1235090031134     
   1100.0709700948946     
   1100.1490787712373     
   1100.0518502502771     
   1100.1477196545272     
   1100.0415233522669     
   1100.1382049921631     
   1100.0662992605983     
   1100.0934606119336     
   1100.1205592609447     
   1100.1412696132609     
   1100.1524330282191     
   1100.1537691827548     
   1100.1462820813040     
   1100.1313482561659     
   1100.1104612837589     
   1100.0854291744151     
   1099.9456830948802     
   1099.9059922609372     
   1099.7239575559388     
   1099.7334874349642     
   1099.8633538676766     
   1099.8907708853112     
   1100.0385369399194     
   1100.1191304279041     
   1100.1238737450267     
   1100.1213350381604     
   1100.1434152556674     
   1100.0021512571504     
   1100.0773657254699     
   1100.0609773715191     
   1100.1057400046398     
   1100.1133490034886     
   1100.0916038431321     
   1099.9943798348613     
   1100.0281958318476     
   1100.0403052601614     
   1100.1192790921609     
   1100.0640709637262     
   1100.1284927980225     
   1100.0898572690157     
   1100.1034739145477     
   1100.1100541566718     
   1100.0642545616242     
   1100.0315042382592     
   1099.9477185581911     
   1100.0180575141565     
   1100.1080617246075     
   1100.0258064929487     
   1100.0907352179713     
   1100.0470779016521     
   1100.0671167862504     
   1100.0704526718177     
   1100.0374257176431     
   1100.0873003642623     
   1100.0026424197392     
   1100.0945052178729     
   1099.9645411956419     
   1100.0931570878888     
   1100.0860291744939     
   1100.0750943221776     
   1100.0602890266593     
   1100.0403214211285     
   1100.0142895424576     
   1099.8328456792274     
   1099.8143946464463     
   1100.0285870640200     
   1099.9685078632708     
   1100.0290359786156     
   1100.0446450076504     
   1100.0330303307883     
   1100.0213838004058     
   1100.1432913504500     
   1100.1586881447347     
   1100.1296792514047     
   1100.0280566687566     
   1100.0201624577173     
   1100.0398582015650     
   1099.9955898216074     
   1100.0492863042743     
   1100.0273498587933     
   1099.9943755881432     
   1100.0082591743899     
   1099.9925237707032     
   1099.9873225962053     
   1100.0106635616241     
   1099.9514426056203     
   1100.0308361334241     
   1099.9342700927687     
   1099.9146159483560     
   1100.0046242552914     
   1099.9743793995412     
   1099.8347866596175     
   1099.9448506726426     
   1099.9198303184851     
   1099.8995183990144     
   1099.8663624848421     
   1099.7248078982391     
   1099.7373899502729     
   1100.0099360050081     
   1099.7951834522403     
   1099.8191306795782     
   1099.8500315396025     
   1099.9312089062635     
   1099.9801876196771     
   1100.1688660236048     
   1100.1007540983624     
   1100.0266626852249     
   1099.9730933041590     
   1100.1799261078033     
   1100.1083115561405     
   1100.0195758858601     
   1100.0261108981051     
   1099.9838027308581     
   1099.9716729470595     
   1099.9365279451472     
   1099.9607275490221     
   1099.8896096006245     
   1099.9838748865152     
   1100.0165408498690     
   1100.2883985671706     
   1100.0339799724477     
   1099.7764275909053     
   1100.0230605339218     
   1099.7628610428349     
   1099.9851973798231     
   1099.7555603570638     
   1099.9324929313391     
   1099.7555845649722     
   1099.8793138082874     
   1099.8346507981680     
   1099.8000976503031     
   1099.7730998452009     
   1099.7508512823745     
   1099.7360969079073     
   1099.7458968865612     
   1099.8793334447603     
   1099.7243801762327     
   1099.7457170322648     
   1099.8066278291953     
   1099.8369160729574     
   1099.8453846617174     
   1099.8800874082358     
   1099.9365895083442     
   1099.9903925724661     
   1100.0137935654168     
   1099.9516534283646     
   1100.0249513805620     
   1100.1216369126164     
   1099.9285883656328     
   1099.9526353505489     
   1099.9973219530737     
   1100.0305019454927     
   1100.0254768047198     
   1100.0306696704001     
   1099.9412723352748     
   1099.9396829855229     
   1099.8823071255861     
   1099.9809663350647     
   1100.0226941976493     
   1099.7859800494316     
   1100.0299596960756     
   1099.7670457269380     
   1099.9983982089163     
   1099.9431714506075     
   1099.7107688865513     
   1099.8862476112613     
   1099.7133363302050     
   1099.7357711277871     
   1099.8214801027348     
   1099.8122997984547     
   1099.8050947385693     
   1099.7689263822247     
   1099.7467447767499     
   1099.9365820294449     
   1099.8889049258360     
   1099.9310334313623     
   1099.9251458429276     
   1099.8918899819250     
   1099.8798000598854     
   1099.9233417684093     
   1099.8684300537366     
   1099.9350011546064     
   1099.9917836829400     
   1099.8489736987858     
   1099.8514825366349     
   1099.9067023218020     
   1099.8427073249575     
   1099.9699139032346     
   1099.8662379429577     
   1099.9996580440450     
   1099.8996899525580     
   1099.9806572228586     
   1099.9264926439600     
   1099.8679294879219     
   1099.9160064660948     
   1099.8341940272726     
   1099.8656339058371     
   1099.8393998656154     
   1099.9900436324544     
   1100.0229152245679     
   1100.0281662633254     
   1100.3469994820459     
   1100.2346358513944     
   1100.2546809524979     
   1100.1552322353944     
   1100.0559587228488     
   1099.9663523511067     
   1099.9201232961107     
   1099.9572653627711     
   1099.9013142425315     
   1099.8337414206526     
   1099.7936553127283     
   1099.8045784285518     
   1099.9497406396911     
   1099.9618594159590     
   1100.0650665017363     
   1099.8181962372232     
   1100.2192722161860     
   1099.7706524339574     
   1100.2520402725020     
   1099.7786913801922     
   1099.8455947835894     
   1099.9527466877339     
   1100.0734909516675     
   1100.1850056990208     
   1100.2736708071363     
   1100.3343355033951     
   1100.3728633841251     
   1100.5153394382717     
   1100.4510291919401     
   1100.1824796444546     
   1100.2882985060162     
   1100.3756997862670     
   1100.1750120250538     
   1100.2713319910902     
   1100.4185777068210     
   1100.2706489291822     
   1100.2904446479113     
   1100.2953667034546     
   1100.2475691979066     