# vtk DataFile Version 3.1
Mesh with Data
ASCII
DATASET UNSTRUCTURED_GRID
POINTS         7552 float
      0.200000E+03      0.000000E+00      0.200000E+03
      0.000000E+00      0.000000E+00      0.200000E+03
      0.197500E+03      0.000000E+00      0.200000E+03
      0.195000E+03      0.000000E+00      0.200000E+03
      0.192500E+03      0.000000E+00      0.200000E+03
      0.190000E+03      0.000000E+00      0.200000E+03
      0.187500E+03      0.000000E+00      0.200000E+03
      0.185000E+03      0.000000E+00      0.200000E+03
      0.182500E+03      0.000000E+00      0.200000E+03
      0.180000E+03      0.000000E+00      0.200000E+03
      0.177500E+03      0.000000E+00      0.200000E+03
      0.175000E+03      0.000000E+00      0.200000E+03
      0.172500E+03      0.000000E+00      0.200000E+03
      0.170000E+03      0.000000E+00      0.200000E+03
      0.167500E+03      0.000000E+00      0.200000E+03
      0.165000E+03      0.000000E+00      0.200000E+03
      0.162500E+03      0.000000E+00      0.200000E+03
      0.160000E+03      0.000000E+00      0.200000E+03
      0.157500E+03      0.000000E+00      0.200000E+03
      0.155000E+03      0.000000E+00      0.200000E+03
      0.152500E+03      0.000000E+00      0.200000E+03
      0.150000E+03      0.000000E+00      0.200000E+03
      0.147500E+03      0.000000E+00      0.200000E+03
      0.145000E+03      0.000000E+00      0.200000E+03
      0.142500E+03      0.000000E+00      0.200000E+03
      0.140000E+03      0.000000E+00      0.200000E+03
      0.137500E+03      0.000000E+00      0.200000E+03
      0.135000E+03      0.000000E+00      0.200000E+03
      0.132500E+03      0.000000E+00      0.200000E+03
      0.130000E+03      0.000000E+00      0.200000E+03
      0.127500E+03      0.000000E+00      0.200000E+03
      0.125000E+03      0.000000E+00      0.200000E+03
      0.122500E+03      0.000000E+00      0.200000E+03
      0.120000E+03      0.000000E+00      0.200000E+03
      0.117500E+03      0.000000E+00      0.200000E+03
      0.115000E+03      0.000000E+00      0.200000E+03
      0.112500E+03      0.000000E+00      0.200000E+03
      0.110000E+03      0.000000E+00      0.200000E+03
      0.107500E+03      0.000000E+00      0.200000E+03
      0.105000E+03      0.000000E+00      0.200000E+03
      0.102500E+03      0.000000E+00      0.200000E+03
      0.100000E+03      0.000000E+00      0.200000E+03
      0.975000E+02      0.000000E+00      0.200000E+03
      0.950000E+02      0.000000E+00      0.200000E+03
      0.925000E+02      0.000000E+00      0.200000E+03
      0.900000E+02      0.000000E+00      0.200000E+03
      0.875000E+02      0.000000E+00      0.200000E+03
      0.850000E+02      0.000000E+00      0.200000E+03
      0.825000E+02      0.000000E+00      0.200000E+03
      0.800000E+02      0.000000E+00      0.200000E+03
      0.775000E+02      0.000000E+00      0.200000E+03
      0.750000E+02      0.000000E+00      0.200000E+03
      0.725000E+02      0.000000E+00      0.200000E+03
      0.700000E+02      0.000000E+00      0.200000E+03
      0.675000E+02      0.000000E+00      0.200000E+03
      0.650000E+02      0.000000E+00      0.200000E+03
      0.625000E+02      0.000000E+00      0.200000E+03
      0.600000E+02      0.000000E+00      0.200000E+03
      0.575000E+02      0.000000E+00      0.200000E+03
      0.550000E+02      0.000000E+00      0.200000E+03
      0.525000E+02      0.000000E+00      0.200000E+03
      0.500000E+02      0.000000E+00      0.200000E+03
      0.475000E+02      0.000000E+00      0.200000E+03
      0.450000E+02      0.000000E+00      0.200000E+03
      0.425000E+02      0.000000E+00      0.200000E+03
      0.400000E+02      0.000000E+00      0.200000E+03
      0.375000E+02      0.000000E+00      0.200000E+03
      0.350000E+02      0.000000E+00      0.200000E+03
      0.325000E+02      0.000000E+00      0.200000E+03
      0.300000E+02      0.000000E+00      0.200000E+03
      0.275000E+02      0.000000E+00      0.200000E+03
      0.250000E+02      0.000000E+00      0.200000E+03
      0.225000E+02      0.000000E+00      0.200000E+03
      0.200000E+02      0.000000E+00      0.200000E+03
      0.175000E+02      0.000000E+00      0.200000E+03
      0.150000E+02      0.000000E+00      0.200000E+03
      0.125000E+02      0.000000E+00      0.200000E+03
      0.100000E+02      0.000000E+00      0.200000E+03
      0.750000E+01      0.000000E+00      0.200000E+03
      0.500000E+01      0.000000E+00      0.200000E+03
      0.250000E+01      0.000000E+00      0.200000E+03
      0.000000E+00      0.000000E+00      0.000000E+00
      0.000000E+00      0.000000E+00      0.197500E+03
      0.000000E+00      0.000000E+00      0.195000E+03
      0.000000E+00      0.000000E+00      0.192500E+03
      0.000000E+00      0.000000E+00      0.190000E+03
      0.000000E+00      0.000000E+00      0.187500E+03
      0.000000E+00      0.000000E+00      0.185000E+03
      0.000000E+00      0.000000E+00      0.182500E+03
      0.000000E+00      0.000000E+00      0.180000E+03
      0.000000E+00      0.000000E+00      0.177500E+03
      0.000000E+00      0.000000E+00      0.175000E+03
      0.000000E+00      0.000000E+00      0.172500E+03
      0.000000E+00      0.000000E+00      0.170000E+03
      0.000000E+00      0.000000E+00      0.167500E+03
      0.000000E+00      0.000000E+00      0.165000E+03
      0.000000E+00      0.000000E+00      0.162500E+03
      0.000000E+00      0.000000E+00      0.160000E+03
      0.000000E+00      0.000000E+00      0.157500E+03
      0.000000E+00      0.000000E+00      0.155000E+03
      0.000000E+00      0.000000E+00      0.152500E+03
      0.000000E+00      0.000000E+00      0.150000E+03
      0.000000E+00      0.000000E+00      0.147500E+03
      0.000000E+00      0.000000E+00      0.145000E+03
      0.000000E+00      0.000000E+00      0.142500E+03
      0.000000E+00      0.000000E+00      0.140000E+03
      0.000000E+00      0.000000E+00      0.137500E+03
      0.000000E+00      0.000000E+00      0.135000E+03
      0.000000E+00      0.000000E+00      0.132500E+03
      0.000000E+00      0.000000E+00      0.130000E+03
      0.000000E+00      0.000000E+00      0.127500E+03
      0.000000E+00      0.000000E+00      0.125000E+03
      0.000000E+00      0.000000E+00      0.122500E+03
      0.000000E+00      0.000000E+00      0.120000E+03
      0.000000E+00      0.000000E+00      0.117500E+03
      0.000000E+00      0.000000E+00      0.115000E+03
      0.000000E+00      0.000000E+00      0.112500E+03
      0.000000E+00      0.000000E+00      0.110000E+03
      0.000000E+00      0.000000E+00      0.107500E+03
      0.000000E+00      0.000000E+00      0.105000E+03
      0.000000E+00      0.000000E+00      0.102500E+03
      0.000000E+00      0.000000E+00      0.100000E+03
      0.000000E+00      0.000000E+00      0.975000E+02
      0.000000E+00      0.000000E+00      0.950000E+02
      0.000000E+00      0.000000E+00      0.925000E+02
      0.000000E+00      0.000000E+00      0.900000E+02
      0.000000E+00      0.000000E+00      0.875000E+02
      0.000000E+00      0.000000E+00      0.850000E+02
      0.000000E+00      0.000000E+00      0.825000E+02
      0.000000E+00      0.000000E+00      0.800000E+02
      0.000000E+00      0.000000E+00      0.775000E+02
      0.000000E+00      0.000000E+00      0.750000E+02
      0.000000E+00      0.000000E+00      0.725000E+02
      0.000000E+00      0.000000E+00      0.700000E+02
      0.000000E+00      0.000000E+00      0.675000E+02
      0.000000E+00      0.000000E+00      0.650000E+02
      0.000000E+00      0.000000E+00      0.625000E+02
      0.000000E+00      0.000000E+00      0.600000E+02
      0.000000E+00      0.000000E+00      0.575000E+02
      0.000000E+00      0.000000E+00      0.550000E+02
      0.000000E+00      0.000000E+00      0.525000E+02
      0.000000E+00      0.000000E+00      0.500000E+02
      0.000000E+00      0.000000E+00      0.475000E+02
      0.000000E+00      0.000000E+00      0.450000E+02
      0.000000E+00      0.000000E+00      0.425000E+02
      0.000000E+00      0.000000E+00      0.400000E+02
      0.000000E+00      0.000000E+00      0.375000E+02
      0.000000E+00      0.000000E+00      0.350000E+02
      0.000000E+00      0.000000E+00      0.325000E+02
      0.000000E+00      0.000000E+00      0.300000E+02
      0.000000E+00      0.000000E+00      0.275000E+02
      0.000000E+00      0.000000E+00      0.250000E+02
      0.000000E+00      0.000000E+00      0.225000E+02
      0.000000E+00      0.000000E+00      0.200000E+02
      0.000000E+00      0.000000E+00      0.175000E+02
      0.000000E+00      0.000000E+00      0.150000E+02
      0.000000E+00      0.000000E+00      0.125000E+02
      0.000000E+00      0.000000E+00      0.100000E+02
      0.000000E+00      0.000000E+00      0.750000E+01
      0.000000E+00      0.000000E+00      0.500000E+01
      0.000000E+00      0.000000E+00      0.250000E+01
      0.200000E+03      0.000000E+00      0.000000E+00
      0.250000E+01      0.000000E+00      0.000000E+00
      0.500000E+01      0.000000E+00      0.000000E+00
      0.750000E+01      0.000000E+00      0.000000E+00
      0.100000E+02      0.000000E+00      0.000000E+00
      0.125000E+02      0.000000E+00      0.000000E+00
      0.150000E+02      0.000000E+00      0.000000E+00
      0.175000E+02      0.000000E+00      0.000000E+00
      0.200000E+02      0.000000E+00      0.000000E+00
      0.225000E+02      0.000000E+00      0.000000E+00
      0.250000E+02      0.000000E+00      0.000000E+00
      0.275000E+02      0.000000E+00      0.000000E+00
      0.300000E+02      0.000000E+00      0.000000E+00
      0.325000E+02      0.000000E+00      0.000000E+00
      0.350000E+02      0.000000E+00      0.000000E+00
      0.375000E+02      0.000000E+00      0.000000E+00
      0.400000E+02      0.000000E+00      0.000000E+00
      0.425000E+02      0.000000E+00      0.000000E+00
      0.450000E+02      0.000000E+00      0.000000E+00
[...]
CELL_DATA        14782
SCALARS model_vs float
LOOKUP_TABLE default
   650.29895887120347     
   649.62022387116747     
   649.55274211538006     
   650.16891788531836     
   649.51502791038536     
   649.79961337640327     
   650.26550604533247     
   650.29391953047912     
   650.34682333113915     
   650.36970808542060     
   649.84461079300604     
   649.85513550013604     
   649.94198928246476     
   649.95686075777166     
   649.99897909697836     
   649.62740612986306     
   649.94996383532509     
   649.87309616051834     
   650.04988710385487     
   650.27361493025023     
   650.08340978049546     
   649.91619407725500     
   650.06738422947240     
   650.12438220409376     
   650.19471879269724     
   650.33531215745313     
   650.36699348563320     
   650.06205267648625     
   650.10950886154512     
   650.17295164698544     
   650.22626199670151     
   650.25605077854846     
   650.26396292973118     
   650.25350007316990     
   649.89720228867759     
   650.22218980597779     
   649.68906387420202     
   649.79300090630875     
   649.57538384316399     
   649.41715964619027     
   649.93950476115162     
   649.72225761579409     
   649.54166138598760     
   649.45247228920630     
   650.02951866950252     
   650.02158188147484     
   649.97991652157214     
   649.89992035109390     
   649.92756334597470     
   650.07701014819281     
   649.90650881187105     
   650.00551531010888     
   649.83863343938606     
   649.96982025588511     
   649.87694356815291     
   649.94618472703030     
   649.94189624096498     
   649.94990412805407     
   649.99053356222430     
   649.98023661662410     
   649.99260628783122     
   649.94618807972859     
   649.50878749729907     
   649.77797049723733     
   649.80412520062725     
   649.59985910339697     
   649.76724277306300     
   649.51277613886157     
   649.78148809202196     
   649.84808984559572     
   650.41257687219900     
   650.78004868804919     
   649.54419321426587     
   649.63815740957796     
   649.90847129524968     
   650.03464921258796     
   649.72758893377647     
   650.15416047127997     
   649.70231112046940     
   649.86042153123162     
   650.31000965119767     
   650.01677231251688     
   650.25074957230527     
   650.08166906455472     
   649.99670339272427     
   650.10739254738610     
   649.78394560954939     
   649.55881893467199     
   649.46483305076652     
   650.05992695201564     
   649.90619365593454     
   649.72585239289253     
   650.17404642308395     
   650.10351199710578     
   650.13570796995407     
   649.34786741706785     
   649.37160251445414     
   650.56921392214508     
   649.91231042936033     
   649.50371538058778     
   649.73122385903707     
   649.99878038711768     
   650.21543812807954     
   650.24671311129600     
   650.17028928075877     
   650.65680164642936     
   650.57223279956077     
   650.07238892803502     
   649.55348020087445     
   649.80746548294303     
   650.03320592535522     
   649.92284689023302     
   650.13048662425649     
   649.97255927771334     
   649.66223148920278     
   650.25126038061182     
   649.48163545390457     
   650.11666774892478     
   649.43522296605090     
   649.96730968841996     
   649.40779216146791     
   649.82883214165327     
   649.41713344705624     
   649.72733723901740     
   649.67793553429840     
   650.06253260756125     
   649.66986239388746     
   650.41230548366298     
   649.66652834913123     
   650.63559262167576     
   650.67899816952672     
   649.54185033542240     
   649.45434443934937     
   651.27706081842530     
   649.46106586064275     
   649.65577060890985     
   650.03881171160708     
   650.46795370622738     
   650.74123520077717     
   649.81178747863237     
   650.64813453816714     
   649.73928550729829     
   650.05295890665900     
   650.43597527600843     
   650.69868948069586     
   649.86883965417940     
   650.18385656267390     
   650.02647015249465     
   649.89462625472186     
   649.84933460285083     
   649.95863764163107     
   649.83077025063380     
   649.89188873660828     
   649.90315367260553     
   650.37885697508125     
   650.28618083606443     
   649.86232156555684     
   650.26039302937613     
   649.95134815022971     
   649.75995724297479     
   650.11621539094847     
   649.45032719369169     
   650.32345555567463     
   649.32533566040172     
   650.50014941723816     
   651.37079696205672     
   649.97080137836053     
   650.44187199941621     
   650.48821113288261     
   650.23657398550688     
   649.86791618399855     
   649.51372477225186     
   649.35650023753158     
   649.52064934149416     
   649.93973198579170     
   650.34288147901634     
   649.03062078759126     
   650.84201780873434     
   650.70781322478842     
   650.10318605011287     
   650.66342836138529     
   650.55399375873060     
   650.24542286440817     
   649.72865983987924     
   650.07708944389913     
   650.41547496495468     
   649.90693362671743     
   649.92217491522320     
   650.75101639418074     
   649.99098244955974     
   650.78638952223673     
   650.21354213765233     
   650.30104380240186     
   650.40088240424848     
   650.45734863465623     
   649.69893608297866     
   649.93695256526371     
   650.81311888259938     
   651.04592841720591     
   651.11205662717725     
   650.88935443595255     
   650.42162500019867     
   649.96345314835833     
   649.81440144852763     
   652.11800504968608     
   649.76806775303623     
   650.26988733463736     
   650.23462899612173     
   649.85841605849657     
   649.57541531940160     
   649.73650321862158     
   649.74214712573189     
   649.83955842624857     
   649.85111219342639     
   649.55132555561249     
   649.67565871199588     
   649.96022469550428     
   649.61694519282344     
   650.68113757159938     
   649.70391887623384     
   651.20557644380392     
   649.74551556647214     
   651.62613733244757     
   649.76391494061022     
   651.72278271392827     
   649.84874009013015     
   650.06570930006296     
   650.14302389824400     
   651.95817213556052     
   651.58672621557128     
   651.59254226928965     
   648.73757721557001     
   651.19561452038351     
   650.56293806236715     
   650.37861917211603     
   650.68569140160162     
   650.57047861891488     
   650.39208707614068     
   649.86877324528564     
   650.46582949478727     
   650.04411454098647     
   650.30878568712751     
   649.84074080129108     
   650.96495817499340     
   650.61068896501979     
   649.98768992450857     
   650.45427005572753     
   650.46926899455059     
   650.43004222309241     
   650.77568275276508     
   650.88885688950961     
   650.68238299610891     
   650.22877929340063     
   649.55272443347053     
   649.64187709308840     
   650.07438503859578     
   650.23707100775493     
   650.02061259905088     
   650.14394594585872     
   650.29747035159278     
   649.61566347009943     
   650.17633347780156     
   650.72004172973209     
   650.31198782710567     
   650.03510401687686     
   650.63551853538092     
   650.57314356281483     
   650.52621360838975     
   650.41462751198446     
   649.03642197095644     
   650.38462598438878     
   648.63915995937691     
   648.60873370013940     
   650.06010568969077     
   648.89731244412849     
   649.72483337498807     
   649.39909022341419     
   649.12338282421183     
   648.88400262010987     
   648.80710784550854     
   650.00602589484674     
   648.12743997809162     
   648.24430459036626     
   648.73414507541258     
   647.99041698229837     
   649.36857773711858     
   649.45677244497085     
   649.18498924888934     
   649.08638713633820     
   648.40731326088871     
   649.85375057066710     
   648.11099041784826     
   649.58299071082570     
   649.51055167676191     
   649.03308701748142     
   650.02684515490785     
   647.56380219077801     
   647.39834292888611     
   647.94957678126514     
   649.06137624403880     
   650.93653851474096     
   650.99936306001155     
   652.03036935602393     
   649.96700389611112     
   648.57155234491449     
   647.76896014319709     
   649.13145278534273     
   650.62501877919067     
   648.63683226373098     
   651.27033088053770     
   648.04456359214271     
   647.66484368928673     
   649.58910518365815     
   649.74517511102022     
   649.60760314430252     
   651.36651110409082     
   649.27787441042472     
   652.07759008210746     
   648.82247333108648     
   648.36055151974813     
   648.21831705536761     
   648.78943113951334     
   651.43717421685847     
   648.58817979971968     
   650.77122773501333     
   649.73207747779838     
   650.26874005522154     
   651.29464308661807     
   650.46355237158969     
   650.68880117767856     
   649.74770716564979     
   650.99111847780432     
   648.77437920389195     
   651.49372644901393     
   649.37995488310253     
   650.49615743069990     
   652.21684279338479     
   651.65956850603936     
   650.32637090831861     
   648.83230074798678     
   648.58836003021202     
   649.61181718537796     
   648.38629544690878     
   651.12250301063489     
   646.69204356344824     
   646.77138502779155     
   651.12122171884016     
   647.89555144463634     
   646.06394634715389     
   646.24937405422816     
   647.90650316365065     
   650.70607133793067     
   653.58529353870438     
   646.80239349581200     
   653.31352577328414     
   651.20138613766017     
   649.20142352742914     
   648.52420375845008     
   654.28023972457015     
   654.32426210841322     
   653.38612087348963     
   653.93967255968391     
   654.20145969772807     
   650.36749758855353     
   650.19404998685718     
   650.01845473989022     
   649.99999986576552     
   649.99999978147139     
   650.00000000000000     
   649.79659741783007     
   649.91848297070851     
   649.94322789083242     
   650.02339390450413     
   649.97027762388541     
   649.93554289138797     
   649.78144115276405     
   649.93627336633153     
   649.91337600486474     
   649.76707305108152     
   649.95018129704090     
   649.98964133080983     
   650.04745875308151     
   650.17700743358012     
   649.91538848918299     
   649.90055418996030     
   649.89903392703275     
   649.88279219798653     
   649.85298648877301     
   649.82205123792937     
   650.06681218280119     
   649.84987330591809     
   649.93914210820708     
   649.88141239262654     
   650.22133837242734     
   649.88568265696335     
   649.82913082474238     
   649.85568625487383     
   649.88997848828444     
   649.79805683477571     
   649.79769503957857     
   649.80517765373600     
   649.82006440275757     
   649.84265663071574     
   649.89040608001392     
   650.05965157197818     
   649.90984817258720     
   649.87300646166807     
   650.04092984361864     
   650.01022196875908     
   649.88926091793633     
   649.97169753783987     
   649.93000077833199     
   649.80745808227709     
   649.82659889525576     
   649.85404500195932     
   649.80995875468295     
   649.79636069477669     
   649.78637989855508     
   649.77931488164586     
   649.77664537390956     
   649.90121271874284     
   649.88190181578955     
   649.90147168795033     
   649.90715718247793     
   649.90951420234603     
   649.90654777433781     
   649.86788473832985     
   650.01040543659190     
   649.98971813260835     
   649.95829895430006     
   649.93450829930873     
   649.93532071371374     
   649.85793359614627     
   649.88193923411256     
   650.03650056145250     
   650.00386843799356     
   649.98109442682130     
   649.97103908670522     
   649.97212609983740     
   649.99896181745771     
   649.96357123128314     
   649.93056477056439     
   649.90499298147279     
   649.88747937570690     
   649.83210440087498     
   649.89371437767636     
   649.90391325030373     
   649.91177970213687     
   649.94581030159850     
   649.91192525821475     
   649.92965323704038     
   649.90158283035407     
   649.92550586464461     
   649.93451492346333     
   649.91590155139363     
   649.83664552714026     
   649.95456860161619     
   649.82541100677906     
   649.98018936758615     
   649.82871649467165     
   650.00415091464265     
   649.84451811443080     
   650.01951827472919     
   649.86497671601239     
   650.02111199566184     
   649.88102935141012     
   650.00667973238956     
   649.88684499424562     
   649.97759518891826     
   650.16057736945390     
   649.86822803986365     
   649.90005007395200     
   649.87046456095209     
   649.85829384371016     
   649.86476328664662     
   650.18797256720245     
   649.88262240002007     
   650.00958373165940     
   650.05041311040895     
   650.07735528357534     
   649.63660702738480     
   650.06429174283926     
   650.14289039486187     
   650.08224641291349     
   650.13037001846965     
   650.16956224836986     
   650.16105469219656     
   650.13967018120979     
   649.83078941005010     
   649.97962154337222     
   649.87724334849224     
   650.07354893172646     
   650.10937923094025     
   649.98171841072292     
   649.97158219024254     
   649.96818864944350     
   649.97636612751432     
   650.16049376264414     
   649.99570530651511     
   650.08053684276808     
   650.02218874090443     
   650.02055847036945     
   650.05169879293999     
   649.96670340188609     
   650.11343340350049     
   650.14348271707979     
   650.16694218190867     
   650.17514758032780     
   650.15989338853376     
   650.11905393661004     
   650.06163077101360     
   650.00675210054226     
   649.97508710342993     
   649.97788572506408     
   650.09667624238796     
   650.14666862048455     
   650.09198490630058     
   649.96880239055383     
   650.12112455156785     
   650.14260237163148     
   649.97281235917683     
   650.12384741420965     
   650.08206357163635     
   650.01644628363044     
   649.82432345585266     
   649.87383067801488     
   649.80744641080560     
   649.92479563201948     
   649.88307529248164     
   649.85281757681105     
   649.83730610988448     
   650.49173823772560     
   649.83079254837378     
   649.83544591177235     
   649.83121447667872     
   649.85240691014303     
   649.78958033793162     
   649.88900421859921     
   649.76844574726283     
   649.94645349573113     
   649.76072559658007     
   649.75561772691856     
   650.16952268216630     
   649.74556917471568     
   650.12956225915070     
   649.73082563347282     
   650.10305125547779     
   649.71995530542517     
   650.06596545217087     
   649.72585401541983     
   650.04663830882464     
   649.75956070662016     
   650.06258754029511     
   649.82494204875752     
   650.10933531165347     
   649.91508301476654     
   650.01125791593608     
   650.08783904996471     
   650.12436037090697     
   650.11865510001815     
   650.09202716158086     
   650.16054344510871     
   650.12742918952642     
   649.89011947526433     
   649.93203477296481     
   649.68375069426554     
   649.69672256992169     
   650.47713174103967     
   650.49202966256496     
   649.77051187726340     
   649.74633301660947     
   649.76429277215107     
   649.85183363843328     
   649.84324859914636     
   649.79433984561842     
   650.21218476109493     
   649.74001445739430     
   650.00248287593979     
   650.06595448309520     
   649.71856288553090     
   650.09213918029343     
   649.80672573207153     
   650.08148757022900     
   650.05715428263136     
   650.03952761548589     
   650.14071319875518     
   650.16323550902791     
   649.80735605903112     
   649.74983335442039     
   650.13233553927489     
   649.74574876177996     
   649.81068771779428     
   649.93203551571514     
   650.16197061421724     
   650.18948992558035     
   650.20134996204365     
   650.06490914559663     
   649.87955349847357     
   649.88372871707406     
   649.97590091184077     
   650.04195202883739     
   650.41209826304146     
   649.99216406233643     
   650.15556374343805     
   650.30546222872033     
   650.47013173055348     
   650.07007306819185     
   650.24879088083208     
   650.44062754106028     
   650.39881889027060     
   650.37006545622626     
   650.49163025202176     
   650.25872826776913     
   650.52865532080534     
   650.11662818393518     
   650.53172394017383     
   650.52695867455043     
   650.01611740006501     
   650.52956768813590     
   649.96593365810952     
   650.53650759059394     
   650.09529796175036     
   650.52994222986695     
   650.19356688742846     
   650.48665089996814     
   650.21129293548199     
   650.39016245554490     
   650.24335773596397     
   650.07700268454164     
   649.94585002429483     
   649.90454341343036     
   649.86115457460005     
   649.98155817331997     
   649.77118422988599     
   649.88153524783377     
   649.97740000610179     
   650.42645634066332     
   650.44025553761844     
   649.70258509509074     
   649.63259264236467     
   649.58774277737075     
   649.55793583177581     
   649.54729548638011     
   650.40537800132188     
   650.39801415185354     
   650.30748670871446     
   650.34589486614823     
   650.25588553897001     
   650.17620434562491     
   650.13747141650242     
   650.33224940054708     
   650.15168147382133     
   650.28723833140236     
   650.29947568049238     
   650.38648062319191     
   649.92334604279858     
   649.85158225200041     
   650.32517790779571     
   649.83958851133957     
   650.15390052806276     
   649.88401489130240     
   649.97298255219653     
   649.91280384396157     
   650.09207076917892     
   650.03085706499758     
   650.13171083232919     
   650.32781819281524     
   650.36691411903962     
   650.30304683426880     
   649.95455813755927     
   649.83975704308170     
   649.89558065808137     
   649.88464667695928     
   650.22557886054062     
   650.22909236707824     
   650.25391462997970     
   649.76949223078873     
   650.07055768019404     
   649.92171574070835     
   649.64639254625479     
   649.57188911481217     
   649.86682571426638     
   649.74355338928933     
   649.65460100552696     
   649.81175803986355     
   649.61405937408699     
   649.96033836960669     
   649.61773079022907     
   650.11921386838094     
   649.64323728125862     
   649.66564750354439     
   649.67409343029419     
   650.08892346320977     
   649.67818736916115     
   649.74064799302369     
   649.70202452149772     
   650.05183628795578     
   650.17747762674344     
   650.19416478983078     
   649.85516039102208     
   649.99926235006001     
   650.13743043373529     
   649.85608502712330     
   650.20016923088735     
   649.94043809627465     
   649.87345956677143     
   650.02315675025318     
   650.08812895859512     
   650.10947537241702     
   650.07977379974375     
   650.00826404418672     
   650.07443483872123     
   649.83481848637996     
   649.80465513183015     
   650.29962474988235     
   649.98063863201014     
   650.29418274316981     
   650.10963877620100     
   650.23889422614968     
   650.14200217439452     
   650.01838066933988     
   649.89700161901033     
   649.82263748096625     
   649.83729595877833     
   649.94162582363026     
   650.08659881839981     
   649.79128766505323     
   649.72533814476947     
   650.06232494937876     
   649.90139303929584     
   649.76868697919929     
   650.14946393477646     
   650.02208635257682     
   649.70258155906970     
   650.01600493551689     
   649.93828545893439     
   649.93826973078455     
   649.99270740476572     