# vtk DataFile Version 3.1
Mesh with Data
ASCII
DATASET UNSTRUCTURED_GRID
POINTS         7552 float
      0.200000E+03      0.000000E+00      0.200000E+03
      0.000000E+00      0.000000E+00      0.200000E+03
      0.197500E+03      0.000000E+00      0.200000E+03
      0.195000E+03      0.000000E+00      0.200000E+03
      0.192500E+03      0.000000E+00      0.200000E+03
      0.190000E+03      0.000000E+00      0.200000E+03
      0.187500E+03      0.000000E+00      0.200000E+03
      0.185000E+03      0.000000E+00      0.200000E+03
      0.182500E+03      0.000000E+00      0.200000E+03
      0.180000E+03      0.000000E+00      0.200000E+03
      0.177500E+03      0.000000E+00      0.200000E+03
      0.175000E+03      0.000000E+00      0.200000E+03
      0.172500E+03      0.000000E+00      0.200000E+03
      0.170000E+03      0.000000E+00      0.200000E+03
      0.167500E+03      0.000000E+00      0.200000E+03
      0.165000E+03      0.000000E+00      0.200000E+03
      0.162500E+03      0.000000E+00      0.200000E+03
      0.160000E+03      0.000000E+00      0.200000E+03
      0.157500E+03      0.000000E+00      0.200000E+03
      0.155000E+03      0.000000E+00      0.200000E+03
      0.152500E+03      0.000000E+00      0.200000E+03
      0.150000E+03      0.000000E+00      0.200000E+03
      0.147500E+03      0.000000E+00      0.200000E+03
      0.145000E+03      0.000000E+00      0.200000E+03
      0.142500E+03      0.000000E+00      0.200000E+03
      0.140000E+03      0.000000E+00      0.200000E+03
      0.137500E+03      0.000000E+00      0.200000E+03
      0.135000E+03      0.000000E+00      0.200000E+03
      0.132500E+03      0.000000E+00      0.200000E+03
      0.130000E+03      0.000000E+00      0.200000E+03
      0.127500E+03      0.000000E+00      0.200000E+03
      0.125000E+03      0.000000E+00      0.200000E+03
      0.122500E+03      0.000000E+00      0.200000E+03
      0.120000E+03      0.000000E+00      0.200000E+03
      0.117500E+03      0.000000E+00      0.200000E+03
      0.115000E+03      0.000000E+00      0.200000E+03
      0.112500E+03      0.000000E+00      0.200000E+03
      0.110000E+03      0.000000E+00      0.200000E+03
      0.107500E+03      0.000000E+00      0.200000E+03
      0.105000E+03      0.000000E+00      0.200000E+03
      0.102500E+03      0.000000E+00      0.200000E+03
      0.100000E+03      0.000000E+00      0.200000E+03
      0.975000E+02      0.000000E+00      0.200000E+03
      0.950000E+02      0.000000E+00      0.200000E+03
      0.925000E+02      0.000000E+00      0.200000E+03
      0.900000E+02      0.000000E+00      0.200000E+03
      0.875000E+02      0.000000E+00      0.200000E+03
      0.850000E+02      0.000000E+00      0.200000E+03
      0.825000E+02      0.000000E+00      0.200000E+03
      0.800000E+02      0.000000E+00      0.200000E+03
      0.775000E+02      0.000000E+00      0.200000E+03
      0.750000E+02      0.000000E+00      0.200000E+03
      0.725000E+02      0.000000E+00      0.200000E+03
      0.700000E+02      0.000000E+00      0.200000E+03
      0.675000E+02      0.000000E+00      0.200000E+03
      0.650000E+02      0.000000E+00      0.200000E+03
      0.625000E+02      0.000000E+00      0.200000E+03
      0.600000E+02      0.000000E+00      0.200000E+03
      0.575000E+02      0.000000E+00      0.200000E+03
      0.550000E+02      0.000000E+00      0.200000E+03
      0.525000E+02      0.000000E+00      0.200000E+03
      0.500000E+02      0.000000E+00      0.200000E+03
      0.475000E+02      0.000000E+00      0.200000E+03
      0.450000E+02      0.000000E+00      0.200000E+03
      0.425000E+02      0.000000E+00      0.200000E+03
      0.400000E+02      0.000000E+00      0.200000E+03
      0.375000E+02      0.000000E+00      0.200000E+03
      0.350000E+02      0.000000E+00      0.200000E+03
      0.325000E+02      0.000000E+00      0.200000E+03
      0.300000E+02      0.000000E+00      0.200000E+03
      0.275000E+02      0.000000E+00      0.200000E+03
      0.250000E+02      0.000000E+00      0.200000E+03
      0.225000E+02      0.000000E+00      0.200000E+03
      0.200000E+02      0.000000E+00      0.200000E+03
      0.175000E+02      0.000000E+00      0.200000E+03
      0.150000E+02      0.000000E+00      0.200000E+03
      0.125000E+02      0.000000E+00      0.200000E+03
      0.100000E+02      0.000000E+00      0.200000E+03
      0.750000E+01      0.000000E+00      0.200000E+03
      0.500000E+01      0.000000E+00      0.200000E+03
      0.250000E+01      0.000000E+00      0.200000E+03
      0.000000E+00      0.000000E+00      0.000000E+00
      0.000000E+00      0.000000E+00      0.197500E+03
      0.000000E+00      0.000000E+00      0.195000E+03
      0.000000E+00      0.000000E+00      0.192500E+03
      0.000000E+00      0.000000E+00      0.190000E+03
      0.000000E+00      0.000000E+00      0.187500E+03
      0.000000E+00      0.000000E+00      0.185000E+03
      0.000000E+00      0.000000E+00      0.182500E+03
      0.000000E+00      0.000000E+00      0.180000E+03
      0.000000E+00      0.000000E+00      0.177500E+03
      0.000000E+00      0.000000E+00      0.175000E+03
      0.000000E+00      0.000000E+00      0.172500E+03
      0.000000E+00      0.000000E+00      0.170000E+03
      0.000000E+00      0.000000E+00      0.167500E+03
      0.000000E+00      0.000000E+00      0.165000E+03
      0.000000E+00      0.000000E+00      0.162500E+03
      0.000000E+00      0.000000E+00      0.160000E+03
      0.000000E+00      0.000000E+00      0.157500E+03
      0.000000E+00      0.000000E+00      0.155000E+03
      0.000000E+00      0.000000E+00      0.152500E+03
      0.000000E+00      0.000000E+00      0.150000E+03
      0.000000E+00      0.000000E+00      0.147500E+03
      0.000000E+00      0.000000E+00      0.145000E+03
      0.000000E+00      0.000000E+00      0.142500E+03
      0.000000E+00      0.000000E+00      0.140000E+03
      0.000000E+00      0.000000E+00      0.137500E+03
      0.000000E+00      0.000000E+00      0.135000E+03
      0.000000E+00      0.000000E+00      0.132500E+03
      0.000000E+00      0.000000E+00      0.130000E+03
      0.000000E+00      0.000000E+00      0.127500E+03
      0.000000E+00      0.000000E+00      0.125000E+03
      0.000000E+00      0.000000E+00      0.122500E+03
      0.000000E+00      0.000000E+00      0.120000E+03
      0.000000E+00      0.000000E+00      0.117500E+03
      0.000000E+00      0.000000E+00      0.115000E+03
      0.000000E+00      0.000000E+00      0.112500E+03
      0.000000E+00      0.000000E+00      0.110000E+03
      0.000000E+00      0.000000E+00      0.107500E+03
      0.000000E+00      0.000000E+00      0.105000E+03
      0.000000E+00      0.000000E+00      0.102500E+03
      0.000000E+00      0.000000E+00      0.100000E+03
      0.000000E+00      0.000000E+00      0.975000E+02
      0.000000E+00      0.000000E+00      0.950000E+02
      0.000000E+00      0.000000E+00      0.925000E+02
      0.000000E+00      0.000000E+00      0.900000E+02
      0.000000E+00      0.000000E+00      0.875000E+02
      0.000000E+00      0.000000E+00      0.850000E+02
      0.000000E+00      0.000000E+00      0.825000E+02
      0.000000E+00      0.000000E+00      0.800000E+02
      0.000000E+00      0.000000E+00      0.775000E+02
      0.000000E+00      0.000000E+00      0.750000E+02
      0.000000E+00      0.000000E+00      0.725000E+02
      0.000000E+00      0.000000E+00      0.700000E+02
      0.000000E+00      0.000000E+00      0.675000E+02
      0.000000E+00      0.000000E+00      0.650000E+02
      0.000000E+00      0.000000E+00      0.625000E+02
      0.000000E+00      0.000000E+00      0.600000E+02
      0.000000E+00      0.000000E+00      0.575000E+02
      0.000000E+00      0.000000E+00      0.550000E+02
      0.000000E+00      0.000000E+00      0.525000E+02
      0.000000E+00      0.000000E+00      0.500000E+02
      0.000000E+00      0.000000E+00      0.475000E+02
      0.000000E+00      0.000000E+00      0.450000E+02
      0.000000E+00      0.000000E+00      0.425000E+02
      0.000000E+00      0.000000E+00      0.400000E+02
      0.000000E+00      0.000000E+00      0.375000E+02
      0.000000E+00      0.000000E+00      0.350000E+02
      0.000000E+00      0.000000E+00      0.325000E+02
      0.000000E+00      0.000000E+00      0.300000E+02
      0.000000E+00      0.000000E+00      0.275000E+02
      0.000000E+00      0.000000E+00      0.250000E+02
      0.000000E+00      0.000000E+00      0.225000E+02
      0.000000E+00      0.000000E+00      0.200000E+02
      0.000000E+00      0.000000E+00      0.175000E+02
      0.000000E+00      0.000000E+00      0.150000E+02
      0.000000E+00      0.000000E+00      0.125000E+02
      0.000000E+00      0.000000E+00      0.100000E+02
      0.000000E+00      0.000000E+00      0.750000E+01
      0.000000E+00      0.000000E+00      0.500000E+01
      0.000000E+00      0.000000E+00      0.250000E+01
      0.200000E+03      0.000000E+00      0.000000E+00
      0.250000E+01      0.000000E+00      0.000000E+00
      0.500000E+01      0.000000E+00      0.000000E+00
      0.750000E+01      0.000000E+00      0.000000E+00
      0.100000E+02      0.000000E+00      0.000000E+00
      0.125000E+02      0.000000E+00      0.000000E+00
      0.150000E+02      0.000000E+00      0.000000E+00
      0.175000E+02      0.000000E+00      0.000000E+00
      0.200000E+02      0.000000E+00      0.000000E+00
      0.225000E+02      0.000000E+00      0.000000E+00
      0.250000E+02      0.000000E+00      0.000000E+00
      0.275000E+02      0.000000E+00      0.000000E+00
      0.300000E+02      0.000000E+00      0.000000E+00
      0.325000E+02      0.000000E+00      0.000000E+00
      0.350000E+02      0.000000E+00      0.000000E+00
      0.375000E+02      0.000000E+00      0.000000E+00
      0.400000E+02      0.000000E+00      0.000000E+00
      0.425000E+02      0.000000E+00      0.000000E+00
      0.450000E+02      0.000000E+00      0.000000E+00
[...]
CELL_DATA        14782
SCALARS model_vs float
LOOKUP_TABLE default
   650.06620510609514     
   649.83716026661261     
   649.88830110938659     
   650.01687807574592     
   650.04603281701350     
   649.88230663299464     
   650.07355871390780     
   650.03146127292484     
   650.05390451823746     
   650.07161118263070     
   649.94914386239202     
   649.95538440681923     
   649.96451821440053     
   649.96457740489166     
   649.97467707168494     
   649.95191687320698     
   649.94251494652508     
   649.98280100006741     
   650.01233314246110     
   650.07571536093940     
   650.00589523504357     
   650.00404520628183     
   649.99036330064450     
   650.02906676242662     
   650.05493117611206     
   650.08554615931814     
   650.08326879764763     
   650.03406703408837     
   650.05842915020685     
   650.07782094197216     
   650.08656081605682     
   650.08390439241498     
   650.06011792939694     
   650.04525696892858     
   649.93427423610012     
   650.02625777542380     
   649.87945648739026     
   649.90975292687222     
   649.85718768121603     
   649.88262969544473     
   650.02325088558655     
   649.99661740095928     
   649.96073309449002     
   649.92768280906205     
   650.04737463872641     
   650.05685213382253     
   650.05434475194033     
   650.02285332226040     
   650.04088949945401     
   650.00128326829554     
   649.89660235017345     
   650.03127960563597     
   650.01152886902275     
   650.01680416043382     
   650.02648499022166     
   650.01002764557938     
   650.03771186138692     
   650.01149528418011     
   650.03777170288924     
   650.01530343283389     
   650.02451036213256     
   650.00307610170046     
   649.94317382494535     
   649.87825946515250     
   649.97211952271687     
   649.83108381334125     
   649.97482993989433     
   649.82259051477843     
   649.98847202611898     
   650.00417417553388     
   649.96048457422000     
   650.22876100085909     
   649.83497788940701     
   649.87825302981094     
   649.92719461438787     
   649.96144189297934     
   650.00662624411018     
   650.00424397009124     
   649.91368320056301     
   649.94003650183220     
   650.03643068992392     
   650.01581224891584     
   650.03414389220438     
   650.01661733461935     
   649.97273074255827     
   650.01277693447935     
   649.88316597592518     
   649.90130820630611     
   649.90625567747998     
   649.97614823955291     
   649.94092943345277     
   649.90901853217918     
   650.23016118185512     
   650.02791560735477     
   650.00417727607510     
   649.89252964664729     
   649.91671864056548     
   650.06480082514611     
   649.93102323715686     
   649.95311925271403     
   649.99782900515436     
   650.04176131569841     
   650.06936813065249     
   650.03439049356803     
   650.00029282285925     
   650.01002840480942     
   650.13097769407523     
   650.04092808918085     
   649.91311161352110     
   649.94776627170756     
   650.07875939239727     
   650.04417445788226     
   650.01307977451631     
   649.98046106261188     
   649.92422969037375     
   650.05528845037463     
   649.91092059466473     
   650.03815788114775     
   649.91093409883536     
   650.00737127950140     
   649.91011544277171     
   649.97563384743216     
   649.91544689171508     
   649.95481089767384     
   649.94968079748298     
   650.09798683596807     
   649.95523838207066     
   650.18162787252845     
   649.95960879533277     
   650.21464950222605     
   650.18455207964053     
   649.93251606059187     
   649.91911342021842     
   650.00641182186200     
   649.94055349545306     
   650.01609364266892     
   650.13179167235762     
   650.23637004206319     
   650.27306017776641     
   649.93623400966578     
   650.28713110304648     
   649.98412358075245     
   650.02608896983975     
   650.08248807222628     
   650.11975521731290     
   649.96418834969245     
   650.05127289635436     
   650.01061934938582     
   649.96072249466090     
   650.00469327461269     
   649.87068494711878     
   649.97962090579267     
   649.98186434618231     
   650.05024013343495     
   650.03449168197267     
   650.08104232298535     
   650.00002103279201     
   650.07940396940876     
   649.96042526082033     
   649.98324718030244     
   649.99206790609651     
   649.94326706010645     
   650.04670860345425     
   649.95938943640988     
   650.10116736682528     
   650.08853812701796     
   650.17397858231027     
   650.27528293068269     
   650.12134001275206     
   650.07506485377144     
   650.01338164641993     
   649.96967305303212     
   649.97699418003674     
   650.04888559222991     
   650.15970608966904     
   650.24562829119111     
   649.82763935577850     
   649.95904403008899     
   649.99391534433562     
   649.89565473503171     
   650.11212347395201     
   650.07432137538740     
   649.94636733189145     
   649.80868177560933     
   649.89079815716218     
   650.01506519250825     
   649.85996287462626     
   649.82571041849894     
   650.12974568391166     
   649.84184456607193     
   650.13289908169622     
   649.96157603169308     
   650.01495489713807     
   650.04604692370287     
   649.99466407462160     
   650.00035562650794     
   650.07896634609608     
   650.08875786853923     
   650.12060913753930     
   650.13735567946060     
   650.10855930404136     
   650.03378647672446     
   649.96324940613988     
   649.96524843539146     
   650.27137739627449     
   650.09830266859115     
   649.96129162038483     
   649.96754854535118     
   650.03183076837490     
   650.07962517212229     
   649.78006067982744     
   650.18619839303960     
   649.96715019865042     
   650.02333177982814     
   649.81641128021965     
   649.65767509130512     
   650.00168192594208     
   649.90961750347662     
   649.96885158706402     
   650.01522365438814     
   650.01998203412438     
   650.09071708327576     
   650.09212085950401     
   650.10961490587090     
   650.12822417237430     
   650.07303028345632     
   650.00930759032360     
   649.92588471125725     
   650.34266447973289     
   650.06808223194321     
   650.09290562816182     
   650.19492606791027     
   650.05149588198060     
   649.97139729485275     
   650.01504640511098     
   650.10797853808663     
   650.15519859149890     
   650.07732124928111     
   650.24077181945245     
   649.97110679520938     
   650.24121354040517     
   650.20495537751106     
   650.17272494268491     
   650.26146397077866     
   650.06814264539503     
   650.22429431911439     
   650.03608889693476     
   650.21322200358361     
   650.00580718327308     
   650.19850463405476     
   650.19563409076397     
   650.19151816740259     
   650.16175993351601     
   650.02466737419456     
   649.97078286043472     
   649.25839567061450     
   649.89155647713244     
   649.98068981740630     
   650.15842300410134     
   649.71318565457909     
   650.29310277596346     
   650.19140895849057     
   649.95398239744566     
   649.96063430824563     
   649.82648073159669     
   649.93082311662045     
   650.05309237815050     
   649.95554847005644     
   649.85462008424270     
   650.29199419020290     
   649.75675685543797     
   650.18418824349635     
   650.02925205129895     
   649.76776852503531     
   649.88748345119643     
   649.92284365101716     
   650.12199329398300     
   650.27274452259894     
   650.29970511752902     
   650.01652684720625     
   650.00584098317597     
   649.48618624727123     
   649.52702321744209     
   649.81381138522977     
   649.44115506250625     
   650.45734691151654     
   650.37597831330106     
   650.25930921569761     
   649.50151877886151     
   649.41572696351932     
   650.06457872671899     
   649.58477330939024     
   649.91446869497895     
   650.05004531688508     
   649.72159839909898     
   650.18752857029472     
   649.37539687895969     
   649.31082469345006     
   649.37815099215140     
   649.59420926814960     
   650.12157834385675     
   650.16298397048104     
   650.56238820255908     
   649.27719381787676     
   649.06560091081053     
   649.17471746999411     
   650.52210460083404     
   650.00403021555769     
   650.08817629431962     
   650.53943701868207     
   649.82787213758400     
   649.48789613756810     
   650.47553358360267     
   650.44735476454889     
   650.41962095623705     
   649.72422620136206     
   650.31263818652337     
   650.15083432352378     
   650.04409192367552     
   649.62292877728680     
   649.20664619226068     
   649.03653383771416     
   649.76832483292060     
   649.31454651053559     
   650.51224900266766     
   649.98035899135914     
   649.89961261844007     
   650.66416037381964     
   649.39573902651557     
   649.41518622033095     
   650.09545781150814     
   649.68379674326820     
   649.59726249829225     
   650.11746062110535     
   649.46665344358826     
   649.98193818366553     
   650.84370895751965     
   650.81700255387102     
   650.44551911146368     
   649.88762494727280     
   649.54191132323297     
   650.01514437861715     
   650.12523327239694     
   650.93932562307100     
   649.44664336774883     
   649.33283621403007     
   650.90593188769844     
   649.98383394853261     
   649.24086354296855     
   649.10168532979606     
   649.72291291396164     
   650.53905010797098     
   651.01471591763072     
   649.08169165814877     
   650.84914027985167     
   650.59816828004989     
   649.93949806918226     
   649.41165058938509     
   651.58701335728801     
   651.44303608767621     
   651.19790082228928     
   651.46463431202244     
   651.60170110697493     
   650.16112251682875     
   650.10833370047021     
   650.00966322882334     
   649.99999994947859     
   649.99999993546089     
   650.00000000000000     
   649.97328514183198     
   649.97314238685760     
   649.98056586758707     
   650.00063742181908     
   649.99307541537348     
   649.97689136702104     
   649.97248262628875     
   649.98290849514206     
   649.97749611985159     
   649.96956212674820     
   649.99035990922516     
   649.99562456437468     
   650.00469741804682     
   650.03231741804450     
   649.98340766482897     
   649.98558341220212     
   649.97221653144095     
   649.96953229473877     
   649.97655161140415     
   649.97484689441148     
   650.00815636666243     
   649.99232560874111     
   649.99220152120222     
   649.97783567941019     
   650.04689060527812     
   649.98228526776063     
   649.97705915866118     
   649.97945514812932     
   649.98301524741510     
   649.97513812631792     
   649.97485509404692     
   649.97527858526132     
   649.97643112564845     
   649.97844501810823     
   649.98543295273146     
   650.00726601969689     
   649.98548940426747     
   649.98145732980697     
   650.00369271820398     
   649.99877073740913     
   649.99341651825762     
   649.99318322576607     
   649.98771549989101     
   649.97619033394585     
   649.97798492187962     
   649.98022040446085     
   649.97558018368773     
   649.97461850769741     
   649.97382446386302     
   649.97306993860582     
   649.97250981993886     
   649.97083257115810     
   649.97753033951960     
   649.97710613749530     
   649.97514732625189     
   649.98745792705131     
   649.98810655680586     
   649.96851347015229     
   650.01484605368353     
   650.01049083299449     
   650.00376413986771     
   649.99748642218151     
   649.99455825659845     
   649.98230397175371     
   649.98648987968409     
   650.01349561790232     
   650.00875277384330     
   650.00424020643936     
   650.00052968397290     
   649.99795133250097     
   649.99698933359457     
   649.99209688870587     
   649.98819661115829     
   649.98590716576439     
   649.98653698894327     
   649.98288339014164     
   649.98858929910648     
   649.99069288136820     
   649.99196925812919     
   649.99063874735612     
   649.99178619961197     
   649.99000576780702     
   649.98988263179956     
   649.99131680846551     
   649.99432029056959     
   649.95915470067689     
   649.97829730709861     
   649.99834876027967     
   649.97548847702285     
   650.00244887275187     
   649.97453432250632     
   650.00566385613467     
   649.97526760349444     
   650.00720127147827     
   649.97675907592247     
   650.00654123662957     
   649.97794317783928     
   650.00352891686180     
   649.97826055872190     
   649.99846837538496     
   650.00421395577519     
   649.97736539710809     
   649.98602315323569     
   649.98137967325272     
   649.97936373003961     
   649.98014948006494     
   650.02130967047981     
   649.98275048092387     
   650.01607430880767     
   650.02424837737203     
   650.02082016001407     
   649.86256140838805     
   649.99656901703054     
   650.04154804336679     
   650.01638073618676     
   650.01695637501939     
   650.02490986736848     
   650.02539850392566     
   650.02413588352385     
   649.97970038506514     
   649.99649145037210     
   649.96818729062352     
   650.01790376981114     
   650.02154416811027     
   650.00047793537226     
   650.00218813865888     
   650.00422515631237     
   650.00661402000753     
   650.02217759048688     
   650.00916576465056     
   650.00972911378039     
   650.01164521905719     
   650.00207401070190     
   650.01399994552787     
   649.99632437899743     
   650.01891779910079     
   650.02140776720478     
   650.02311555643416     
   650.02295124119644     
   650.02007523316036     
   650.01462294433759     
   650.00820515304702     
   650.00354382008493     
   650.00315458003456     
   650.00787290560481     
   650.02793279657953     
   650.03721378834746     
   650.01866064190847     
   650.00696992252495     
   650.01870836922967     
   650.01946571679719     
   649.98729486431444     
   650.01420337097068     
   650.00856512325424     
   650.00006349562443     
   649.97151685897290     
   649.96705360259079     
   649.96675167529088     
   649.99793150977621     
   649.99429632638976     
   649.99030122547310     
   649.98645503675243     
   650.06189966794182     
   649.97731288605974     
   649.97650379631182     
   649.98691377136902     
   649.97823852834165     
   649.98035444201957     
   649.98312025644520     
   649.97450232344261     
   649.99085500710305     
   649.96938266490247     
   649.96476993340741     
   650.01417913822388     
   649.96056005267872     
   650.01601943038372     
   649.95722019476887     
   650.01510103622013     
   649.95581117987024     
   650.01441006582354     
   649.95755247576324     
   650.01714399453260     
   649.96328812367926     
   650.02446147817534     
   649.97302177481174     
   650.03437759302324     
   649.98558973824811     
   649.99863055162893     
   650.00919896363177     
   650.01527119993739     
   650.01717413767585     
   650.01779046559034     
   650.01673463558473     
   650.01225668912741     
   649.97846706871030     
   649.98893252564312     
   649.95234917442485     
   649.95203077228643     
   650.06841133989587     
   650.06693316136466     
   649.97583595710557     
   649.96955788835032     
   649.96680015198604     
   649.96776709225412     
   649.96420212914529     
   649.95999987576602     
   650.05152770196798     
   649.95537915308944     
   649.98487558715021     
   649.99122478092022     
   649.95863684535402     
   649.99514388512193     
   649.97157610711611     
   649.99597734716406     
   650.00578480636295     
   649.99338034132722     
   650.01701039740442     
   650.02065565247824     
   649.96911005485561     
   649.96291411131733     
   650.02179792721313     
   649.96383377699033     
   649.97378493806491     
   649.99060807332899     
   650.01945123565019     
   650.02242793094024     
   650.01299775553764     
   650.02629215481022     
   649.98993751557828     
   649.98854127230118     
   649.99931408936516     
   650.01723896557803     
   650.04222384605100     
   649.99099982457233     
   650.00866951381806     
   650.02682953394560     
   650.05380226346665     
   650.00181072537032     
   650.02308900626576     
   650.06488031256413     
   650.04305987875728     
   650.05487632645293     
   650.05842434305418     
   650.03839941235083     
   650.06879306120572     
   650.01808717680137     
   650.07567666047123     
   650.08093320081559     
   649.98620577354620     
   650.08527673418837     
   650.00185776302260     
   650.08763650159426     
   650.01626468204245     
   650.08565828058011     
   650.02316571781682     
   650.07702470129016     
   650.01772180092780     
   650.06091686738671     
   650.03922493300581     
   650.01707311950429     
   650.00162063080290     
   649.99847408047697     
   650.00249538381968     
   650.00962348505811     
   649.96713199059639     
   650.00578157140671     
   650.01693950579215     
   650.07287642649749     
   650.07625652117304     
   649.95485310660979     
   649.94027236479678     
   649.93197172582666     
   649.92778258739008     
   649.92748085506526     
   650.05681902864910     
   650.05169858980048     
   650.03746015337322     
   650.05424205742929     
   650.04774684269728     
   650.04182786837953     
   650.03997100635684     
   650.04659257809249     
   650.04349836657923     
   650.04368914290728     
   650.06180431318887     
   650.07128604145851     
   650.00357687733128     
   649.99537182026097     
   650.05920186760545     
   649.99445230597428     
   650.03789085510607     
   650.00057356040611     
   650.01253086591453     
   650.00760904043466     
   650.02879043300152     
   650.01485374492268     
   650.01473164093261     
   650.06229910038019     
   650.06875685629950     
   650.06146636390440     
   650.01796056421085     
   650.00297369247937     
   649.99696258449899     
   650.00553649580513     
   650.05742365059893     
   650.05747086838664     
   650.02989046729920     
   649.96629836967782     
   650.01325767167202     
   649.99044631263610     
   649.94599217196185     
   649.93290731438844     
   649.97674924976570     
   649.95342776444988     
   649.93562703442547     
   649.97762485541659     
   649.92621068968731     
   650.00732020215139     
   649.92445461394823     
   650.03749497412673     
   649.92669785505257     
   649.92930342133945     
   649.93143335575985     
   650.03615379169503     
   649.93568182356626     
   649.98465381515325     
   649.94644468156662     
   650.02882703049625     
   650.05043841708834     
   650.05020416858338     
   649.91269943077555     
   649.98975602135295     
   650.01757859798465     
   649.98051200152690     
   650.00348456749066     
   649.96523225312058     
   649.95301745102586     
   649.97990653220779     
   649.99000393639290     
   649.99115489991937     
   649.98346326079923     
   649.97084892785335     
   649.99317096453842     
   649.95446713316699     
   649.96141605772641     
   650.03477967542324     
   650.00520091684461     
   650.02786105211396     
   650.02204315973665     
   650.01191910390071     
   649.99140142184376     
   649.97118397747499     
   649.95663545195077     
   649.95304143593091     
   649.96293070082857     
   649.98181628815996     
   649.99228338920261     
   649.91323061395804     
   649.89994875866569     
   649.96983589236913     
   649.93472309664583     
   649.90784338184051     
   649.99812852588821     
   649.95846928396736     
   649.87523791700517     
   650.01060676627253     
   649.93839899621605     
   650.00856331421983     
   649.98909513544538     