# vtk DataFile Version 3.1
Mesh with Data
ASCII
DATASET UNSTRUCTURED_GRID
POINTS         7552 float
      0.200000E+03      0.000000E+00      0.200000E+03
      0.000000E+00      0.000000E+00      0.200000E+03
      0.197500E+03      0.000000E+00      0.200000E+03
      0.195000E+03      0.000000E+00      0.200000E+03
      0.192500E+03      0.000000E+00      0.200000E+03
      0.190000E+03      0.000000E+00      0.200000E+03
      0.187500E+03      0.000000E+00      0.200000E+03
      0.185000E+03      0.000000E+00      0.200000E+03
      0.182500E+03      0.000000E+00      0.200000E+03
      0.180000E+03      0.000000E+00      0.200000E+03
      0.177500E+03      0.000000E+00      0.200000E+03
      0.175000E+03      0.000000E+00      0.200000E+03
      0.172500E+03      0.000000E+00      0.200000E+03
      0.170000E+03      0.000000E+00      0.200000E+03
      0.167500E+03      0.000000E+00      0.200000E+03
      0.165000E+03      0.000000E+00      0.200000E+03
      0.162500E+03      0.000000E+00      0.200000E+03
      0.160000E+03      0.000000E+00      0.200000E+03
      0.157500E+03      0.000000E+00      0.200000E+03
      0.155000E+03      0.000000E+00      0.200000E+03
      0.152500E+03      0.000000E+00      0.200000E+03
      0.150000E+03      0.000000E+00      0.200000E+03
      0.147500E+03      0.000000E+00      0.200000E+03
      0.145000E+03      0.000000E+00      0.200000E+03
      0.142500E+03      0.000000E+00      0.200000E+03
      0.140000E+03      0.000000E+00      0.200000E+03
      0.137500E+03      0.000000E+00      0.200000E+03
      0.135000E+03      0.000000E+00      0.200000E+03
      0.132500E+03      0.000000E+00      0.200000E+03
      0.130000E+03      0.000000E+00      0.200000E+03
      0.127500E+03      0.000000E+00      0.200000E+03
      0.125000E+03      0.000000E+00      0.200000E+03
      0.122500E+03      0.000000E+00      0.200000E+03
      0.120000E+03      0.000000E+00      0.200000E+03
      0.117500E+03      0.000000E+00      0.200000E+03
      0.115000E+03      0.000000E+00      0.200000E+03
      0.112500E+03      0.000000E+00      0.200000E+03
      0.110000E+03      0.000000E+00      0.200000E+03
      0.107500E+03      0.000000E+00      0.200000E+03
      0.105000E+03      0.000000E+00      0.200000E+03
      0.102500E+03      0.000000E+00      0.200000E+03
      0.100000E+03      0.000000E+00      0.200000E+03
      0.975000E+02      0.000000E+00      0.200000E+03
      0.950000E+02      0.000000E+00      0.200000E+03
      0.925000E+02      0.000000E+00      0.200000E+03
      0.900000E+02      0.000000E+00      0.200000E+03
      0.875000E+02      0.000000E+00      0.200000E+03
      0.850000E+02      0.000000E+00      0.200000E+03
      0.825000E+02      0.000000E+00      0.200000E+03
      0.800000E+02      0.000000E+00      0.200000E+03
      0.775000E+02      0.000000E+00      0.200000E+03
      0.750000E+02      0.000000E+00      0.200000E+03
      0.725000E+02      0.000000E+00      0.200000E+03
      0.700000E+02      0.000000E+00      0.200000E+03
      0.675000E+02      0.000000E+00      0.200000E+03
      0.650000E+02      0.000000E+00      0.200000E+03
      0.625000E+02      0.000000E+00      0.200000E+03
      0.600000E+02      0.000000E+00      0.200000E+03
      0.575000E+02      0.000000E+00      0.200000E+03
      0.550000E+02      0.000000E+00      0.200000E+03
      0.525000E+02      0.000000E+00      0.200000E+03
      0.500000E+02      0.000000E+00      0.200000E+03
      0.475000E+02      0.000000E+00      0.200000E+03
      0.450000E+02      0.000000E+00      0.200000E+03
      0.425000E+02      0.000000E+00      0.200000E+03
      0.400000E+02      0.000000E+00      0.200000E+03
      0.375000E+02      0.000000E+00      0.200000E+03
      0.350000E+02      0.000000E+00      0.200000E+03
      0.325000E+02      0.000000E+00      0.200000E+03
      0.300000E+02      0.000000E+00      0.200000E+03
      0.275000E+02      0.000000E+00      0.200000E+03
      0.250000E+02      0.000000E+00      0.200000E+03
      0.225000E+02      0.000000E+00      0.200000E+03
      0.200000E+02      0.000000E+00      0.200000E+03
      0.175000E+02      0.000000E+00      0.200000E+03
      0.150000E+02      0.000000E+00      0.200000E+03
      0.125000E+02      0.000000E+00      0.200000E+03
      0.100000E+02      0.000000E+00      0.200000E+03
      0.750000E+01      0.000000E+00      0.200000E+03
      0.500000E+01      0.000000E+00      0.200000E+03
      0.250000E+01      0.000000E+00      0.200000E+03
      0.000000E+00      0.000000E+00      0.000000E+00
      0.000000E+00      0.000000E+00      0.197500E+03
      0.000000E+00      0.000000E+00      0.195000E+03
      0.000000E+00      0.000000E+00      0.192500E+03
      0.000000E+00      0.000000E+00      0.190000E+03
      0.000000E+00      0.000000E+00      0.187500E+03
      0.000000E+00      0.000000E+00      0.185000E+03
      0.000000E+00      0.000000E+00      0.182500E+03
      0.000000E+00      0.000000E+00      0.180000E+03
      0.000000E+00      0.000000E+00      0.177500E+03
      0.000000E+00      0.000000E+00      0.175000E+03
      0.000000E+00      0.000000E+00      0.172500E+03
      0.000000E+00      0.000000E+00      0.170000E+03
      0.000000E+00      0.000000E+00      0.167500E+03
      0.000000E+00      0.000000E+00      0.165000E+03
      0.000000E+00      0.000000E+00      0.162500E+03
      0.000000E+00      0.000000E+00      0.160000E+03
      0.000000E+00      0.000000E+00      0.157500E+03
      0.000000E+00      0.000000E+00      0.155000E+03
      0.000000E+00      0.000000E+00      0.152500E+03
      0.000000E+00      0.000000E+00      0.150000E+03
      0.000000E+00      0.000000E+00      0.147500E+03
      0.000000E+00      0.000000E+00      0.145000E+03
      0.000000E+00      0.000000E+00      0.142500E+03
      0.000000E+00      0.000000E+00      0.140000E+03
      0.000000E+00      0.000000E+00      0.137500E+03
      0.000000E+00      0.000000E+00      0.135000E+03
      0.000000E+00      0.000000E+00      0.132500E+03
      0.000000E+00      0.000000E+00      0.130000E+03
      0.000000E+00      0.000000E+00      0.127500E+03
      0.000000E+00      0.000000E+00      0.125000E+03
      0.000000E+00      0.000000E+00      0.122500E+03
      0.000000E+00      0.000000E+00      0.120000E+03
      0.000000E+00      0.000000E+00      0.117500E+03
      0.000000E+00      0.000000E+00      0.115000E+03
      0.000000E+00      0.000000E+00      0.112500E+03
      0.000000E+00      0.000000E+00      0.110000E+03
      0.000000E+00      0.000000E+00      0.107500E+03
      0.000000E+00      0.000000E+00      0.105000E+03
      0.000000E+00      0.000000E+00      0.102500E+03
      0.000000E+00      0.000000E+00      0.100000E+03
      0.000000E+00      0.000000E+00      0.975000E+02
      0.000000E+00      0.000000E+00      0.950000E+02
      0.000000E+00      0.000000E+00      0.925000E+02
      0.000000E+00      0.000000E+00      0.900000E+02
      0.000000E+00      0.000000E+00      0.875000E+02
      0.000000E+00      0.000000E+00      0.850000E+02
      0.000000E+00      0.000000E+00      0.825000E+02
      0.000000E+00      0.000000E+00      0.800000E+02
      0.000000E+00      0.000000E+00      0.775000E+02
      0.000000E+00      0.000000E+00      0.750000E+02
      0.000000E+00      0.000000E+00      0.725000E+02
      0.000000E+00      0.000000E+00      0.700000E+02
      0.000000E+00      0.000000E+00      0.675000E+02
      0.000000E+00      0.000000E+00      0.650000E+02
      0.000000E+00      0.000000E+00      0.625000E+02
      0.000000E+00      0.000000E+00      0.600000E+02
      0.000000E+00      0.000000E+00      0.575000E+02
      0.000000E+00      0.000000E+00      0.550000E+02
      0.000000E+00      0.000000E+00      0.525000E+02
      0.000000E+00      0.000000E+00      0.500000E+02
      0.000000E+00      0.000000E+00      0.475000E+02
      0.000000E+00      0.000000E+00      0.450000E+02
      0.000000E+00      0.000000E+00      0.425000E+02
      0.000000E+00      0.000000E+00      0.400000E+02
      0.000000E+00      0.000000E+00      0.375000E+02
      0.000000E+00      0.000000E+00      0.350000E+02
      0.000000E+00      0.000000E+00      0.325000E+02
      0.000000E+00      0.000000E+00      0.300000E+02
      0.000000E+00      0.000000E+00      0.275000E+02
      0.000000E+00      0.000000E+00      0.250000E+02
      0.000000E+00      0.000000E+00      0.225000E+02
      0.000000E+00      0.000000E+00      0.200000E+02
      0.000000E+00      0.000000E+00      0.175000E+02
      0.000000E+00      0.000000E+00      0.150000E+02
      0.000000E+00      0.000000E+00      0.125000E+02
      0.000000E+00      0.000000E+00      0.100000E+02
      0.000000E+00      0.000000E+00      0.750000E+01
      0.000000E+00      0.000000E+00      0.500000E+01
      0.000000E+00      0.000000E+00      0.250000E+01
      0.200000E+03      0.000000E+00      0.000000E+00
      0.250000E+01      0.000000E+00      0.000000E+00
      0.500000E+01      0.000000E+00      0.000000E+00
      0.750000E+01      0.000000E+00      0.000000E+00
      0.100000E+02      0.000000E+00      0.000000E+00
      0.125000E+02      0.000000E+00      0.000000E+00
      0.150000E+02      0.000000E+00      0.000000E+00
      0.175000E+02      0.000000E+00      0.000000E+00
      0.200000E+02      0.000000E+00      0.000000E+00
      0.225000E+02      0.000000E+00      0.000000E+00
      0.250000E+02      0.000000E+00      0.000000E+00
      0.275000E+02      0.000000E+00      0.000000E+00
      0.300000E+02      0.000000E+00      0.000000E+00
      0.325000E+02      0.000000E+00      0.000000E+00
      0.350000E+02      0.000000E+00      0.000000E+00
      0.375000E+02      0.000000E+00      0.000000E+00
      0.400000E+02      0.000000E+00      0.000000E+00
      0.425000E+02      0.000000E+00      0.000000E+00
      0.450000E+02      0.000000E+00      0.000000E+00
[...]
CELL_DATA        14782
SCALARS cvs float
LOOKUP_TABLE default
 -0.24698409346350514     
  -7.0433391115665808E-002
  -6.1129158126080288E-002
  -5.1662309903197798E-002
  0.23305571588261242     
 -0.19666361978131769     
   3.9765311588716615E-002
  -1.5709930489666089E-002
  -2.0640302814220551E-002
  -4.6443985868753035E-002
   2.6313343870382144E-002
   9.7250390845985163E-002
   5.7030954915532325E-002
  -1.4993060044242258E-002
 -0.11320111826696648     
 -0.23028715585406828     
 -0.25263108072160145     
  0.26666616265740800     
 -0.11108442242616554     
 -0.21425385807372072     
 -0.13533128630884061     
   5.3773120940178880E-002
  -5.6522226431457837E-002
 -0.20436996108679020     
 -0.23313109122645126     
 -0.16106243652825908     
  -9.7365392825806502E-002
 -0.16153173238570609     
 -0.17455480005842972     
 -0.14226300291303834     
  -7.8334868237368238E-002
  -8.6524947297722601E-003
   4.9615341395654239E-002
   2.1483410686683881E-002
   5.8626225063985182E-003
  -2.5493311821698790E-002
   9.4977573754009184E-002
   1.6329117168022468E-002
  0.12485408908691002     
 -0.10114886995272934     
 -0.16196862042194979     
 -0.10148513609300477     
  -6.3146957781930135E-002
  -3.4098884764965309E-002
  0.16585285045272025     
   8.5745554508179680E-002
   1.2692760899258526E-002
  -3.6891141429625546E-002
  -3.0720796352972229E-002
   7.4265697824177107E-002
  0.40767258403143247     
  0.22407821147906370     
   2.3870864608171269E-002
  0.23541696677930085     
   2.5893983084107820E-002
  0.19032565195402529     
   5.8001533553736981E-002
   9.9788123567276510E-002
  0.11919077991867008     
  -1.1686435070840204E-002
  0.19223596720024622     
  0.25005128933779430     
   1.5999152208813622E-002
 -0.14856234079355007     
  0.23089609008874376     
  -3.9244787190903713E-002
  0.15120774779421675     
   7.5270275566972869E-002
   4.7232897411425598E-002
  -6.2131598873580968E-002
  0.27375359633614521     
  -9.8934383523513081E-002
   7.4126529721993517E-002
  0.15239194015341823     
  -8.8632396455411377E-002
 -0.23203423600277004     
   6.1510184680004618E-002
  -3.8316595245416578E-002
  0.10566725759617050     
  0.12807465284045352     
 -0.22454049548059488     
   3.1241445072735081E-002
 -0.22347179415417276     
   3.9380909312027000E-002
  0.11311527442472392     
  -2.7364788210736606E-002
 -0.20959193809159196     
   5.6352511066634678E-002
   4.2604057380902383E-003
  -8.8704182790328989E-003
   4.9824245154103664E-003
  -1.5677608378945988E-002
 -0.10725598543717027     
 -0.23315870723022586     
 -0.27385372878864656     
 -0.11061839727794726     
  -8.9997873859466865E-002
  0.35161727969091267     
  0.10287667010822678     
  -6.3928206496900411E-002
  -6.4456348111100403E-002
 -0.11008172539464714     
 -0.18786871177373460     
 -0.21958432279680534     
  -7.4418332221424480E-002
   2.2071045055688104E-002
  -4.3478220232705603E-002
 -0.15017309869976808     
 -0.25023071065304209     
 -0.14485309468413837     
  -7.8495847808016800E-002
   6.6948314712953136E-002
 -0.17996341966354140     
 -0.14097533227841502     
 -0.19299195047139406     
 -0.26631866628443335     
 -0.27441137341041044     
 -0.19496814388982509     
 -0.24512434977319331     
 -0.12409162533547863     
 -0.16959956676153071     
 -0.10474733734085528     
  -7.2032651575873352E-002
 -0.14694579284210463     
 -0.21742766422967974     
   4.0920052406905189E-002
 -0.26913760457275981     
  -3.9884809854420611E-002
 -0.27406013991940809     
 -0.12789481572316092     
 -0.13709077823121532     
 -0.14895097587818418     
  -4.5502684789962611E-002
  0.30754975414795138     
   5.7520028173802626E-002
  0.12702607435648944     
  0.12874027240992200     
   5.3475295765468250E-002
  -5.3754154475317700E-002
  0.34974244697352841     
  -2.2125997589532889E-002
   2.1495415558566364E-002
  -3.4834483668769456E-002
  -3.1700205503380874E-002
   3.5016639184719173E-002
  0.27173033366201343     
 -0.11132561381241227     
  -5.0842218953715129E-002
  0.46219746967964370     
  0.14161527011466374     
  0.27691929865119358     
  0.12066731422323240     
   3.7776430117750330E-002
  0.19832244923188247     
 -0.16670595249851847     
 -0.14334879831933234     
  0.29041661522954076     
 -0.15705433014138656     
  0.18112782162498553     
 -0.10713559954646554     
   8.4797952356834502E-002
  -1.5200824249127113E-002
   2.1653344945965006E-002
  0.11445569535007602     
  -1.3403442582715825E-002
 -0.15727103419898686     
  0.26690340718560163     
  0.16864129293038774     
  -7.7501487460957391E-002
 -0.10020512641733462     
  -8.3448468627708799E-002
  -5.2921274663804002E-003
  0.12469128060846052     
  0.24635776875985782     
  0.26700336197911545     
  0.12958392025981069     
  0.45637882171285171     
  0.30977718945167765     
 -0.30945393081072425     
   4.6898759912851973E-002
  0.22450085628714284     
  0.20045618505413071     
  0.12283253668722074     
 -0.18543659548462565     
  0.16250986038237572     
  0.15124030527724142     
  0.37553139638718386     
  0.21157001878064663     
  0.19954928679709891     
   7.8966336983986946E-002
  0.12726692401368039     
  0.11037056460614264     
  0.21651792450637308     
  0.30994668456899666     
  0.19654491202397870     
   7.5879378786431542E-002
   3.7632365881900005E-002
  0.32085840364439272     
  0.22031527197528386     
   8.0957939009329419E-002
  -4.5892566320590300E-002
 -0.11446305969754292     
 -0.11528124174914907     
  -8.9440084600339448E-002
 -0.20219453474195404     
  0.18074738960063047     
   6.2821970903931157E-002
  0.38696571610878061     
  0.18653103377238742     
 -0.17940976527870364     
  -2.7265158324034613E-002
  -5.9159532325312791E-002
 -0.11321373476431525     
   3.7323826960572577E-002
 -0.29597883861204366     
 -0.17807664123710876     
  0.30750676120426140     
 -0.30600468858057750     
  0.41165022992591344     
 -0.19786260836290878     
  0.36808120467957728     
  -5.3005070741009755E-002
  0.24746001666230683     
   6.9748723746772545E-002
   5.7079620720833384E-002
  0.15792713138629316     
  0.22253457873050139     
 -0.32696488492784337     
 -0.15776015714625571     
  0.22533045684876196     
   4.4917383133984912E-002
  0.20797173439886735     
 -0.17328738862209742     
 -0.30446433957228253     
  0.28942946937161274     
 -0.15799880321996207     
 -0.18084296318378756     
   9.7408045050279557E-003
  -2.6140146948242321E-002
 -0.32078310581278641     
  -6.8783950124500393E-002
 -0.13656036097407512     
   6.0266014330151579E-003
   8.4097359664513455E-002
  -4.1294057698866599E-002
  -4.6698032049210386E-003
  0.14000834220268304     
 -0.23179048274114672     
  0.30967272845092225     
 -0.32495056022825664     
 -0.34762047686306558     
 -0.26319999863771015     
  -6.6134595124259246E-002
  0.36848471958339751     
  0.41938011416972248     
 -0.38377115092307745     
 -0.40102958877964978     
   8.0757186951417453E-002
 -0.15361912973660174     
 -0.32426081483937974     
  -3.4361241693206160E-002
 -0.19350588708434674     
 -0.38755072364946663     
 -0.45983360575056814     
 -0.37916274464719724     
 -0.39297279363050752     
 -0.31820088951999220     
 -0.23262721027759065     
 -0.37824024014198276     
  0.13304463553091850     
 -0.39963888593848984     
  0.29550724444698950     
  0.43809213178737882     
 -0.19842216608716073     
  0.52103152128266239     
  -5.8906689540404476E-002
   4.9557966923785363E-002
  0.10069658109922859     
  0.13088413880957417     
  0.34167308597094059     
  -1.1122804975054450E-002
  0.11414538834052321     
  0.33011519118058963     
  0.11151794881329204     
  0.35217302312725796     
  0.19274329696815765     
  0.41910824527100349     
  0.47514340377192882     
   4.1124197067792329E-002
  0.23339428676448032     
 -0.31705120759160366     
  0.31755226037572498     
  -6.7393878246386096E-002
 -0.14153869810910510     
  0.16417271458373561     
 -0.25745735960749461     
  0.42405874184936998     
  0.39041008163704460     
  0.17738269682993787     
 -0.14583754727089446     
 -0.43808910420276959     
 -0.24903109212747820     
 -0.37762339889544916     
 -0.50724429369740187     
 -0.38725819791699589     
 -0.15717865593772873     
  0.29598844857962348     
  0.32788416404916948     
  0.41905313531038113     
 -0.15893402362960590     
  0.29818643102291431     
  0.10015541580612156     
  0.51826913484655202     
  0.52654548526318645     
  0.39191338028118700     
 -0.48904073246500429     
  0.20596905057869619     
 -0.34888631252106567     
  -1.6932895953121321E-002
 -0.25536896972106637     
 -0.42188857907256144     
 -0.45211254771979748     
 -0.28945709066538861     
  -4.8006006738232479E-002
 -0.59528974429707648     
  0.54933958661783189     
  0.53259787992802976     
 -0.41219531866786896     
  0.48723758946327472     
  0.29241292949916303     
 -0.57393625272287174     
   6.8112270892861371E-002
 -0.33370550962294088     
 -0.13653680676777097     
   6.7279213682594444E-002
  -5.3122687495657878E-002
 -0.61240863022613035     
 -0.67850198009626439     
 -0.48328090661284517     
 -0.13703656718440005     
   7.9570912884602260E-002
 -0.21042987571710103     
  -9.5122627193908765E-002
 -0.33546345955896306     
  -8.3836134208198909E-002
 -0.35715566661541709     
 -0.37970446804392766     
 -0.21460017606302556     
 -0.27690322332269318     
 -0.55573330225848405     
 -0.13994469930719974     
 -0.21573375654924493     
 -0.34067030195976078     
 -0.28144791833498833     
  -2.0565947899832626E-002
   5.1469538516328003E-002
   7.5232166505888626E-002
 -0.11931276754145526     
  0.40201504290814727     
  0.33416072335100649     
  0.45394106378918897     
   9.6468744202439505E-002
  0.30301195377178874     
  -3.1999223429248241E-002
  -8.6591380226507336E-002
  -2.1813886436586006E-003
  -3.3023426817890634E-008
  -7.6768825594202259E-008
  -0.0000000000000000     
  -4.6539275618288717E-002
  -3.9770664463006401E-003
  -5.8051607546540356E-003
   5.9704954697393120E-002
   1.8269843631275175E-002
  -3.9890679887405146E-003
  -5.0629212031882004E-002
  -8.6657856179578174E-003
  -5.9565097809685989E-002
 -0.10575898781245723     
   3.1018529634742720E-002
   4.9746824313265423E-002
   6.0600680040082733E-002
  0.19761627853821448     
  -1.2425343608070027E-002
  -6.1951213232673406E-002
  -2.9576596976344655E-002
  -2.6241937101794292E-002
  -4.2917332726418497E-002
  -4.4308314569614607E-002
  -2.6586957674224820E-002
   8.3913346118388125E-003
  -2.0054721329026460E-002
  -4.7910486197632565E-002
   7.0017718788769390E-002
  -1.7357498848422026E-002
  -5.7612634470290608E-002
  -3.4782367276817723E-002
  -7.0465292062225028E-003
  -5.2286712257669996E-002
  -5.9668235788265037E-002
  -6.1731749467739072E-002
  -5.5993481749614264E-002
  -4.1426138354154152E-002
  -5.2555487133873743E-002
   5.4262992003484140E-002
   6.4282365336933659E-003
  -1.9377160240871133E-002
   5.9239809101621410E-002
   5.4999185421570271E-002
  -6.8682534129609327E-002
   4.1871914643295351E-002
   2.0181470390268873E-002
  -4.2437073067353281E-002
  -3.2492903164838743E-002
  -2.3953373861866047E-002
  -7.1787506178137617E-002
  -7.6320152068924924E-002
  -7.3016800401636189E-002
  -6.5429029403997280E-002
  -5.7163288029447860E-002
  -6.7116845966547906E-003
  -4.1182653601206327E-002
  -3.8213758461443870E-002
  -3.4051734399837899E-002
  -5.1460690588561203E-002
  -4.1540627165044086E-002
  -2.5357747218569593E-002
  -2.2361398148450673E-002
  -3.0723884081414788E-002
  -3.9831063426335030E-002
  -4.6334224896155671E-002
  -4.6597428630839335E-002
  -3.6329858433122732E-002
  -3.2130729105407034E-002
  -6.4253021786454811E-002
  -7.9358098023594295E-002
  -7.7645481055256510E-002
  -6.1475730998107228E-002
  -3.7821104293021643E-002
   4.2113681408611568E-002
   2.6003702254914326E-002
   2.5272653172024573E-003
  -2.5485520135522195E-002
  -7.2404306392167411E-002
  -6.5514669183167576E-002
  -8.0633163866743782E-002
  -7.6628884506046532E-002
  -6.3820294888753584E-002
  -4.2017548477951997E-003
  -4.8310302565534612E-002
  -3.1032061863718187E-002
  -3.6389249064505316E-002
  -5.6691114341740054E-002
  -7.4376090283053059E-002
   8.0811068903528988E-002
  -4.6765697385668305E-002
  -7.8994726467650225E-002
  -5.9216553166599829E-002
  -6.9617163109139846E-002
  -6.9198046124257243E-002
  -5.0167241576009762E-002
  -7.3922844096257670E-002
  -2.7813617315712729E-002
  -7.2775702126099046E-002
  -1.0117948982547260E-002
  -6.6630743257222555E-002
  -2.4310168730587939E-003
  -5.7482076628014023E-002
  -6.4075379024822934E-003
  -5.9053309594378515E-003
  -4.0367582069901667E-002
  -3.8739162025335713E-002
  -5.6766790601502130E-002
  -6.9198087844590361E-002
  -7.3494398823008469E-002
  -5.7258098402505489E-003
  -7.0273938410392256E-002
  -2.1601426205976822E-002
  -1.4095215031375901E-002
  -1.0618633796400795E-003
   9.8681818501579296E-002
   1.3038412836830033E-002
   6.8150124141461224E-002
   2.2807662623611089E-002
   1.8767718306796535E-002
   4.5192355111406596E-002
   4.1794036529692019E-002
   2.4716580287538974E-002
  -3.3754002836583974E-002
  -1.4470320530855802E-002
   9.4451518204589999E-004
  -3.6190404875512790E-002
  -3.4867855383387027E-003
  -3.9850982734879692E-002
  -6.3219402492304996E-002
  -8.0651470530984426E-002
  -8.3968604611716527E-002
   3.6254173499527240E-002
  -6.9653416630067896E-002
  -2.5825588174907110E-003
  -4.1161027230692905E-002
  -2.3067287567079924E-002
  -7.0967588318660317E-003
  -3.8623781733392676E-002
   4.1704698356029121E-002
   4.7459375389991933E-002
   4.1946603433476448E-002
   2.9154891447449417E-002
   1.3195028158176199E-002
  -2.7577936942519247E-003
  -1.6330769508959276E-002
  -2.5614526228600987E-002
  -2.9480742081870077E-002
  -2.7701395939493396E-002
   5.9656179102819239E-004
   3.1293689899020306E-003
   2.3622575183434337E-002
   2.3992623278222810E-002
  -3.0460842434443308E-003
  -3.9365349658082392E-003
  -3.7429417875497611E-002
  -1.8671937736057732E-002
  -2.3430568812045374E-002
  -2.3071993707045827E-002
  -9.5028015872381633E-002
   1.2762312323114642E-002
  -7.1669617570988123E-002
  -6.7352539130560579E-002
  -8.9764464642689668E-002
  -9.9601093820297984E-002
  -9.0710229892081551E-002
  0.11265017391934064     
  -7.1939314755083174E-003
   6.2574099716800700E-003
  -9.3725348592968577E-002
   5.5459206645906240E-003
 -0.10670060806815698     
  -4.3533357365795524E-003
  -9.9990429120769053E-002
  -1.5937262216205794E-002
  -7.5480720997997505E-002
  -4.3745889652791803E-002
 -0.24264928016311871     
  -1.8257806444460761E-002
  -1.2528375725113759E-002
  -8.4371165403187322E-003
  -8.1705205352357382E-003
  -1.5661737336662016E-002
  -6.1279658245215127E-003
  -3.3748413964142562E-002
  -4.9659824092242828E-003
  -5.2777923569466749E-002
  -3.1031421602224158E-003
  -6.3847748705970916E-002
   1.7516277719097171E-004
  -6.2548571884632392E-002
  -5.0279444163650489E-002
  -3.2827233423889164E-002
  -1.6933923613160397E-002
  -6.9311587812756325E-003
  -2.6939205745428888E-003
  -5.5091290331438086E-003
  -4.8985696713975003E-003
  -7.4083995140921607E-002
  -6.3846039373086444E-002
 -0.11377223481843204     
  -9.8572096005161911E-002
   4.3637195672070514E-002
   8.3365787954546355E-002
  -9.4838651994080314E-002
 -0.10974571221173184     
 -0.10176231614674533     
  -3.1691845082669465E-002
   1.4122290499523835E-005
  -3.0981771534512523E-002
   3.7467450174904784E-002
  -6.8039082167038203E-002
  -1.2220742366603718E-002
   2.7897533163209927E-002
 -0.11056546509419261     
   4.5247729824499726E-002
  -9.1585478431721545E-002
   3.4946855130203375E-002
  -3.6227220097401237E-002
   3.1948694194649865E-003
  -1.6148690421226294E-002
  -6.3732974714087280E-003
  -9.7808715262519080E-002
 -0.10488808251858456     
  -4.2327725937331938E-004
  -9.6139364924072587E-002
  -7.5687759178229036E-002
  -5.0010041325982302E-002
  -1.1396561953979686E-002
   1.6980487081959348E-002
   4.4586107587707008E-003
  -3.7706514317664367E-003
  -1.0471370173119249E-002
  -1.8788546250006637E-002
  -2.5033093475286452E-002
  0.19391703651906539     
   8.8232511845725434E-002
  -7.2433329470927746E-002
  -2.6895300362073448E-002
   3.3975288622308961E-002
  0.11666957910170242     
  -5.8758558776696862E-002
  -1.0003602497724593E-002
   7.7161836633183253E-003
   5.5107831255806566E-002
  -1.6208694300078062E-002
  0.11414526028980500     
  -2.7120454471867499E-002
  0.14627069547793295     
  -2.8618313276388096E-002
  0.14347855999491207     
  0.11325707565851335     
 -0.18742098681848904     
   7.2324030548757010E-002
  -1.1748959804019146E-003
   3.6934446628959519E-002
   5.7413526642435776E-003
   1.6228741799061093E-002
   6.2264805081498013E-003
   1.0479137418364412E-002
   4.2795361190338041E-004
   1.3819098170018224E-002
   1.9078722852914533E-002
   2.1837260466208416E-002
   2.2101083417855209E-002
   2.2484946393623841E-002
   7.6007544021161111E-002
   7.2513108632951240E-002
  0.12445137710670222     
   6.1884830836523408E-002
   6.4213491579835177E-002
   7.4768522709257670E-002
   6.5021760531821099E-002
   7.6691465564787814E-002
   3.9666846208879870E-002
   6.7405315836264398E-003
  -4.0702136661820119E-003
   1.8619563547858035E-002
  0.15018529385124851     
   8.6571129842186068E-002
   1.9350620251304781E-002
  0.18651364045582849     
  0.18354101997348174     
  0.14785239343909659     
   9.9198852498481732E-002
   9.7475301940256942E-002
   5.8360777821390736E-002
  0.16065103967461777     
   3.7139229403608143E-002
   4.9764042092970875E-002
  0.15500240231109536     
  0.10180524377823774     
   7.5848254418867278E-002
   5.7345586283928031E-002
   7.0478730989664340E-002
   3.5360713081792283E-002
   3.6544702023225108E-002
   6.2119156175911072E-002
   5.2069794383935109E-002
   5.6942272552278884E-002
   3.9139343122168997E-002
   8.1189259985031612E-002
   8.2318074134253919E-002
   7.5989242274992028E-002
   6.5077176993359978E-002
   6.9441254236665806E-002
  0.11820980009248790     
   3.6138795067176516E-002
   3.9323265203147148E-002
   6.3722783291813301E-002
 -0.23630691896015096     
  0.18642034796795656     
  0.16169614771243346     
  0.19507808756801612     
  0.13774587702197585     
   7.2207234862363120E-002
  0.17953195513934622     
  0.16593749889819909     
  0.10927777162520123     
  0.10155087764830659     
   3.3664644607328875E-002
  0.10562117341831337     
  -2.8553644017661760E-002
   9.0000360209563993E-002
  -5.4815559757797380E-002
  -4.0401516476833668E-002
   3.6053148775305743E-003
   2.8100077849255705E-002
   5.7874401265093314E-002
   6.0998635255262633E-002
  0.10277195038089933     
   8.8631901120062889E-002
   4.7954382582561392E-002
   1.2231811648514288E-002
  -2.2877093204337631E-002
  -7.9686237390348191E-002
  -4.3121299517718689E-002
  0.13339134747001918     
  -1.4631737543770611E-002
 -0.15035196004203988     
  -6.8718835307421011E-002
 -0.19053316349736005     
 -0.18141249547464849     
 -0.13226925736169542     
  -6.0608228842798456E-002
   1.5262795101536029E-002
 -0.19897010498044387     
  0.12660079883044129     
  0.14587804766143447     
 -0.18984959447957947     
   8.8730781141627205E-002
 -0.12130700692241891     
   2.2321245836078491E-002
  -4.8367692256037993E-002
   1.7804528603240791E-002
   7.3285636895928569E-002
  0.11639993783579791     
  0.14101316725150248     
  0.13547241120302878     
   9.0661218726530615E-002
  -7.0309616717182583E-002
   8.9541463484008418E-002
  0.11443091590488363     
   1.4749500814505503E-003
   3.9794362421419059E-002
   8.7537956058088312E-002
  -6.2364750807138436E-002
  -6.4221752141575300E-002
   4.4740226037716879E-002
 -0.11615810493981735     
 -0.20243221180707158     
 -0.16169354942964820     
 -0.23354581655709938     