# vtk DataFile Version 3.1
Mesh with Data
ASCII
DATASET UNSTRUCTURED_GRID
POINTS         7552 float
      0.200000E+03      0.000000E+00      0.200000E+03
      0.000000E+00      0.000000E+00      0.200000E+03
      0.197500E+03      0.000000E+00      0.200000E+03
      0.195000E+03      0.000000E+00      0.200000E+03
      0.192500E+03      0.000000E+00      0.200000E+03
      0.190000E+03      0.000000E+00      0.200000E+03
      0.187500E+03      0.000000E+00      0.200000E+03
      0.185000E+03      0.000000E+00      0.200000E+03
      0.182500E+03      0.000000E+00      0.200000E+03
      0.180000E+03      0.000000E+00      0.200000E+03
      0.177500E+03      0.000000E+00      0.200000E+03
      0.175000E+03      0.000000E+00      0.200000E+03
      0.172500E+03      0.000000E+00      0.200000E+03
      0.170000E+03      0.000000E+00      0.200000E+03
      0.167500E+03      0.000000E+00      0.200000E+03
      0.165000E+03      0.000000E+00      0.200000E+03
      0.162500E+03      0.000000E+00      0.200000E+03
      0.160000E+03      0.000000E+00      0.200000E+03
      0.157500E+03      0.000000E+00      0.200000E+03
      0.155000E+03      0.000000E+00      0.200000E+03
      0.152500E+03      0.000000E+00      0.200000E+03
      0.150000E+03      0.000000E+00      0.200000E+03
      0.147500E+03      0.000000E+00      0.200000E+03
      0.145000E+03      0.000000E+00      0.200000E+03
      0.142500E+03      0.000000E+00      0.200000E+03
      0.140000E+03      0.000000E+00      0.200000E+03
      0.137500E+03      0.000000E+00      0.200000E+03
      0.135000E+03      0.000000E+00      0.200000E+03
      0.132500E+03      0.000000E+00      0.200000E+03
      0.130000E+03      0.000000E+00      0.200000E+03
      0.127500E+03      0.000000E+00      0.200000E+03
      0.125000E+03      0.000000E+00      0.200000E+03
      0.122500E+03      0.000000E+00      0.200000E+03
      0.120000E+03      0.000000E+00      0.200000E+03
      0.117500E+03      0.000000E+00      0.200000E+03
      0.115000E+03      0.000000E+00      0.200000E+03
      0.112500E+03      0.000000E+00      0.200000E+03
      0.110000E+03      0.000000E+00      0.200000E+03
      0.107500E+03      0.000000E+00      0.200000E+03
      0.105000E+03      0.000000E+00      0.200000E+03
      0.102500E+03      0.000000E+00      0.200000E+03
      0.100000E+03      0.000000E+00      0.200000E+03
      0.975000E+02      0.000000E+00      0.200000E+03
      0.950000E+02      0.000000E+00      0.200000E+03
      0.925000E+02      0.000000E+00      0.200000E+03
      0.900000E+02      0.000000E+00      0.200000E+03
      0.875000E+02      0.000000E+00      0.200000E+03
      0.850000E+02      0.000000E+00      0.200000E+03
      0.825000E+02      0.000000E+00      0.200000E+03
      0.800000E+02      0.000000E+00      0.200000E+03
      0.775000E+02      0.000000E+00      0.200000E+03
      0.750000E+02      0.000000E+00      0.200000E+03
      0.725000E+02      0.000000E+00      0.200000E+03
      0.700000E+02      0.000000E+00      0.200000E+03
      0.675000E+02      0.000000E+00      0.200000E+03
      0.650000E+02      0.000000E+00      0.200000E+03
      0.625000E+02      0.000000E+00      0.200000E+03
      0.600000E+02      0.000000E+00      0.200000E+03
      0.575000E+02      0.000000E+00      0.200000E+03
      0.550000E+02      0.000000E+00      0.200000E+03
      0.525000E+02      0.000000E+00      0.200000E+03
      0.500000E+02      0.000000E+00      0.200000E+03
      0.475000E+02      0.000000E+00      0.200000E+03
      0.450000E+02      0.000000E+00      0.200000E+03
      0.425000E+02      0.000000E+00      0.200000E+03
      0.400000E+02      0.000000E+00      0.200000E+03
      0.375000E+02      0.000000E+00      0.200000E+03
      0.350000E+02      0.000000E+00      0.200000E+03
      0.325000E+02      0.000000E+00      0.200000E+03
      0.300000E+02      0.000000E+00      0.200000E+03
      0.275000E+02      0.000000E+00      0.200000E+03
      0.250000E+02      0.000000E+00      0.200000E+03
      0.225000E+02      0.000000E+00      0.200000E+03
      0.200000E+02      0.000000E+00      0.200000E+03
      0.175000E+02      0.000000E+00      0.200000E+03
      0.150000E+02      0.000000E+00      0.200000E+03
      0.125000E+02      0.000000E+00      0.200000E+03
      0.100000E+02      0.000000E+00      0.200000E+03
      0.750000E+01      0.000000E+00      0.200000E+03
      0.500000E+01      0.000000E+00      0.200000E+03
      0.250000E+01      0.000000E+00      0.200000E+03
      0.000000E+00      0.000000E+00      0.000000E+00
      0.000000E+00      0.000000E+00      0.197500E+03
      0.000000E+00      0.000000E+00      0.195000E+03
      0.000000E+00      0.000000E+00      0.192500E+03
      0.000000E+00      0.000000E+00      0.190000E+03
      0.000000E+00      0.000000E+00      0.187500E+03
      0.000000E+00      0.000000E+00      0.185000E+03
      0.000000E+00      0.000000E+00      0.182500E+03
      0.000000E+00      0.000000E+00      0.180000E+03
      0.000000E+00      0.000000E+00      0.177500E+03
      0.000000E+00      0.000000E+00      0.175000E+03
      0.000000E+00      0.000000E+00      0.172500E+03
      0.000000E+00      0.000000E+00      0.170000E+03
      0.000000E+00      0.000000E+00      0.167500E+03
      0.000000E+00      0.000000E+00      0.165000E+03
      0.000000E+00      0.000000E+00      0.162500E+03
      0.000000E+00      0.000000E+00      0.160000E+03
      0.000000E+00      0.000000E+00      0.157500E+03
      0.000000E+00      0.000000E+00      0.155000E+03
      0.000000E+00      0.000000E+00      0.152500E+03
      0.000000E+00      0.000000E+00      0.150000E+03
      0.000000E+00      0.000000E+00      0.147500E+03
      0.000000E+00      0.000000E+00      0.145000E+03
      0.000000E+00      0.000000E+00      0.142500E+03
      0.000000E+00      0.000000E+00      0.140000E+03
      0.000000E+00      0.000000E+00      0.137500E+03
      0.000000E+00      0.000000E+00      0.135000E+03
      0.000000E+00      0.000000E+00      0.132500E+03
      0.000000E+00      0.000000E+00      0.130000E+03
      0.000000E+00      0.000000E+00      0.127500E+03
      0.000000E+00      0.000000E+00      0.125000E+03
      0.000000E+00      0.000000E+00      0.122500E+03
      0.000000E+00      0.000000E+00      0.120000E+03
      0.000000E+00      0.000000E+00      0.117500E+03
      0.000000E+00      0.000000E+00      0.115000E+03
      0.000000E+00      0.000000E+00      0.112500E+03
      0.000000E+00      0.000000E+00      0.110000E+03
      0.000000E+00      0.000000E+00      0.107500E+03
      0.000000E+00      0.000000E+00      0.105000E+03
      0.000000E+00      0.000000E+00      0.102500E+03
      0.000000E+00      0.000000E+00      0.100000E+03
      0.000000E+00      0.000000E+00      0.975000E+02
      0.000000E+00      0.000000E+00      0.950000E+02
      0.000000E+00      0.000000E+00      0.925000E+02
      0.000000E+00      0.000000E+00      0.900000E+02
      0.000000E+00      0.000000E+00      0.875000E+02
      0.000000E+00      0.000000E+00      0.850000E+02
      0.000000E+00      0.000000E+00      0.825000E+02
      0.000000E+00      0.000000E+00      0.800000E+02
      0.000000E+00      0.000000E+00      0.775000E+02
      0.000000E+00      0.000000E+00      0.750000E+02
      0.000000E+00      0.000000E+00      0.725000E+02
      0.000000E+00      0.000000E+00      0.700000E+02
      0.000000E+00      0.000000E+00      0.675000E+02
      0.000000E+00      0.000000E+00      0.650000E+02
      0.000000E+00      0.000000E+00      0.625000E+02
      0.000000E+00      0.000000E+00      0.600000E+02
      0.000000E+00      0.000000E+00      0.575000E+02
      0.000000E+00      0.000000E+00      0.550000E+02
      0.000000E+00      0.000000E+00      0.525000E+02
      0.000000E+00      0.000000E+00      0.500000E+02
      0.000000E+00      0.000000E+00      0.475000E+02
      0.000000E+00      0.000000E+00      0.450000E+02
      0.000000E+00      0.000000E+00      0.425000E+02
      0.000000E+00      0.000000E+00      0.400000E+02
      0.000000E+00      0.000000E+00      0.375000E+02
      0.000000E+00      0.000000E+00      0.350000E+02
      0.000000E+00      0.000000E+00      0.325000E+02
      0.000000E+00      0.000000E+00      0.300000E+02
      0.000000E+00      0.000000E+00      0.275000E+02
      0.000000E+00      0.000000E+00      0.250000E+02
      0.000000E+00      0.000000E+00      0.225000E+02
      0.000000E+00      0.000000E+00      0.200000E+02
      0.000000E+00      0.000000E+00      0.175000E+02
      0.000000E+00      0.000000E+00      0.150000E+02
      0.000000E+00      0.000000E+00      0.125000E+02
      0.000000E+00      0.000000E+00      0.100000E+02
      0.000000E+00      0.000000E+00      0.750000E+01
      0.000000E+00      0.000000E+00      0.500000E+01
      0.000000E+00      0.000000E+00      0.250000E+01
      0.200000E+03      0.000000E+00      0.000000E+00
      0.250000E+01      0.000000E+00      0.000000E+00
      0.500000E+01      0.000000E+00      0.000000E+00
      0.750000E+01      0.000000E+00      0.000000E+00
      0.100000E+02      0.000000E+00      0.000000E+00
      0.125000E+02      0.000000E+00      0.000000E+00
      0.150000E+02      0.000000E+00      0.000000E+00
      0.175000E+02      0.000000E+00      0.000000E+00
      0.200000E+02      0.000000E+00      0.000000E+00
      0.225000E+02      0.000000E+00      0.000000E+00
      0.250000E+02      0.000000E+00      0.000000E+00
      0.275000E+02      0.000000E+00      0.000000E+00
      0.300000E+02      0.000000E+00      0.000000E+00
      0.325000E+02      0.000000E+00      0.000000E+00
      0.350000E+02      0.000000E+00      0.000000E+00
      0.375000E+02      0.000000E+00      0.000000E+00
      0.400000E+02      0.000000E+00      0.000000E+00
      0.425000E+02      0.000000E+00      0.000000E+00
      0.450000E+02      0.000000E+00      0.000000E+00
[...]
CELL_DATA        14782
SCALARS cvp float
LOOKUP_TABLE default
  -1.7134534181734447E-002
   5.5579446390389392E-002
  -2.4310269279546166E-002
  0.10496952228474872     
  -7.6970836013457680E-002
   7.3967020589898097E-002
  -2.8248027357838806E-002
  -6.8810685299267815E-002
  -6.8413567567114433E-002
  -4.0765721131368629E-002
  -7.1439462194462011E-002
  -8.6020571151784866E-002
  -8.0728991534042310E-002
  -7.0576121774582876E-002
  -3.1538162236854531E-002
  0.11411103083251070     
   9.9537991833618070E-002
  -3.3916784010411233E-002
  -3.5029012629436411E-002
   7.2014480033356018E-002
  -3.3314302227925197E-002
   4.8048502656062086E-002
  -6.6891106577403422E-002
   1.7981104032076787E-002
   6.0061484724735180E-002
   4.9467931271391860E-002
   4.8419580791002823E-003
   1.6529956471506083E-002
   6.3012894688769139E-002
   8.0590682556792914E-002
   6.1986190106239805E-002
   1.8417132813062086E-002
  -5.7381944500288926E-002
  -5.8489290633005189E-002
  0.12645825375002470     
  -3.3459871270046918E-002
  0.12301750433815165     
  0.12026329443287527     
   8.7479258265510340E-002
   3.1865044240422268E-002
  0.11467534177948639     
  0.14076895740523415     
  0.13584711589426343     
   9.8866048828042175E-002
   4.2165613735082444E-002
   8.2813692530151292E-002
   9.2207015271314710E-002
   9.3957170480252605E-003
   6.2954135730579938E-002
   6.7892907369632507E-002
 -0.13395916670219227     
  -6.7738782881834030E-003
   3.9593573463471672E-003
  -3.9193020761055644E-002
   5.9750770184832096E-002
  -4.0883202055340739E-002
   9.4945479930956964E-002
  -1.2999200949153916E-002
   9.0965167860303481E-002
   3.1059797024440054E-002
   5.2126228629408335E-002
   1.4380786744255082E-003
   7.2288744231809199E-002
  0.10068613817371491     
  -3.6913980400973254E-002
   8.8543422814394881E-002
  -7.3452058381989109E-003
   8.2628626430260421E-002
   4.0549712727820465E-002
   8.6655677716025115E-002
 -0.22973613350442346     
  -1.0914366700091778E-002
   5.4694790360116770E-002
   7.2128292203389094E-002
  -3.0191452471882794E-003
  -3.4615608774939029E-003
   2.0516191187898717E-002
   7.4541209967407290E-002
  -4.2154367148668340E-002
  -3.1815493482594326E-002
  0.10460047830834852     
   9.3998785984768296E-002
   8.4475816034004877E-002
  0.10189819604225581     
   1.2839177192703988E-002
   9.0318329441052475E-002
   2.6937153828227350E-002
  -1.2991885849770710E-002
   4.1910785784994589E-002
   1.7439247619195811E-002
  -3.3412924430447730E-002
  -5.0222626481483776E-002
   7.1116528198539725E-002
   6.9830903323976609E-002
   2.4560508464147056E-002
   9.3687065493255367E-002
  0.13679781357441123     
 -0.13243165560695530     
   2.7053977805850928E-002
  0.14666318511974277     
  0.12248453449210289     
   7.5225978804937088E-002
   2.2577997687036683E-002
  -3.0323131505493622E-002
  -1.1590392251962378E-002
   7.2063102984045974E-002
   3.4385768265238509E-002
   3.0965271507820517E-003
  -4.0330443184687734E-003
  -7.0394483760585630E-002
   3.8842096525683531E-002
  -3.5847061770757166E-002
   2.6037954347522027E-002
  -3.7229632158512868E-002
  -5.6617500635964442E-002
   8.7591702367248794E-002
   6.2117124487459180E-002
   3.0618198786698400E-002
  0.11373545113377083     
  -3.7927901099889305E-002
  0.13236852283050177     
  -8.0015118074339225E-002
  0.11510450111151410     
  -7.4268341388782924E-002
  -2.5821912185618457E-002
  -2.4353664630906744E-002
   4.0158425537237578E-002
  -5.1040412123916731E-002
   9.3629944268323148E-002
  -5.3565105001221365E-002
  -3.0454875825787764E-002
   9.7970153437103538E-002
   5.6500930691141232E-002
 -0.22693548280880693     
   7.7064083346826979E-003
  -3.2508329643347190E-002
  -5.5316167627893875E-002
  -5.8727197295389687E-002
  -4.3603954283768578E-002
  -7.0380207524750354E-002
  -4.3313918741120505E-003
  -6.8074264971743043E-002
 -0.13396369722776191     
 -0.19418466082725019     
 -0.22139903473360728     
 -0.11700898712389497     
   5.3731499743546823E-002
  -1.5503783316646140E-003
 -0.10007261298519216     
  -9.4120840629258559E-002
 -0.10867523037359217     
 -0.10489388631585762     
  -6.5942862330421986E-002
  -3.3044744698205689E-002
  0.12041061181846521     
   7.3755677427699923E-002
  -9.8045858202712027E-002
   5.2296245824357761E-002
  -8.2829818826190435E-002
  -4.9631334990013938E-002
  -1.8473836988196983E-002
  -8.4421019257291091E-002
   3.9117043002504313E-002
  -9.2069344685678248E-002
   5.9758370552686693E-002
 -0.10604524847718400     
  -5.1195217595083387E-002
  -2.6033779648186359E-002
  -2.3147097806010434E-002
  -8.5355545668755833E-002
 -0.12555354262405255     
 -0.13050855416678947     
 -0.10477758846647101     
  -6.5061518195246942E-002
  -2.9301098053787285E-002
  -7.4646259571962484E-003
  -3.0448441586762839E-002
 -0.25213553972543240     
  -6.3516385860503968E-002
   2.5599814643372035E-002
  -4.3882349322445426E-002
   2.9125316575358176E-002
   2.6406558887935715E-002
  -6.5474791538616031E-002
  -4.1683920836348212E-002
   5.5999175922467684E-002
 -0.13914954494973103     
 -0.11900129325768354     
 -0.13202539507712679     
  -5.0392975125432116E-002
 -0.19940040764889702     
   6.4662724274425432E-002
   4.2961755137228760E-002
  -3.3019614012773049E-002
  -6.3247599412371042E-002
  -2.2076169486111005E-002
  -8.2615017175797639E-003
 -0.21612343814081861     
 -0.25438355157096737     
 -0.23804730496014287     
 -0.17965508927642465     
 -0.10586606642076059     
  -4.5642912792476606E-002
  -1.9177028768935761E-002
  0.14521908249810947     
   1.3294976499037669E-002
 -0.10186179979581492     
 -0.19035669947977737     
   2.3615407006782326E-002
  0.11979632457315836     
 -0.13423881071146615     
  0.16365127378674116     
   9.1211692726151525E-002
   9.1296175256260825E-002
  -7.2926296796891749E-002
 -0.11849292812841095     
  -8.4355503110118621E-002
   2.6018023305785863E-002
 -0.25805159671940331     
  0.10384353765781762     
 -0.27099245629353863     
  0.11845892084753126     
 -0.23480948028444582     
   6.0653142859820791E-002
 -0.17087551018439950     
  -4.4744951410475443E-002
 -0.15452718544052602     
  -5.7000875624684630E-002
  0.15302030718427073     
 -0.17441498968988375     
 -0.11919073156761720     
  0.19797894024051105     
  -8.1851365618650015E-002
  -7.4284730099108229E-002
  -5.8389256650641957E-002
 -0.16943238915731115     
 -0.14792458592404009     
  0.19726656642877410     
  0.12967681180159807     
   1.2065271254084409E-002
   3.6392853920946898E-002
  -7.1449173373807684E-002
  0.17963923555742128     
   5.2196097654204812E-002
 -0.14311375890364961     
  0.15770965060064443     
  -9.6424621146647016E-002
  -3.4866737547612131E-002
  -4.6455311406376168E-002
 -0.11028014914375953     
 -0.12665273453112635     
  -8.9465102597448887E-002
  -3.0507994322471935E-002
   1.9516016046310404E-002
  -1.3106662393642506E-002
  0.14434192519848976     
  0.34656970207638793     
   5.7260156856559968E-002
  0.16278575889779059     
  -8.1462507667082851E-002
  0.17188198331497906     
   8.3234109342332024E-002
  -8.0291163874046237E-002
   4.3736951330961227E-002
  -7.2775585313052310E-002
  -6.8817110812030638E-002
  -1.8227750204432337E-002
  0.13829152914844522     
   2.5525208437997098E-002
  0.20596414083001546     
  -6.4293877703337304E-002
  0.17282179728352087     
   8.8151982675741841E-002
  -1.4013556276540396E-002
  -1.6813544375988893E-002
  0.10735494318157561     
  0.22641087112036185     
  0.29112243339791954     
  0.27813311965520632     
   8.2910876766419367E-002
   2.0236077308479102E-003
 -0.15044199234774241     
   2.5176845150809313E-002
  0.41599856682063141     
  0.23556934752202019     
 -0.18742231988930766     
 -0.19177064036923547     
  -8.8373703807671733E-002
  -6.4151243558375065E-002
   7.1844394259630226E-002
  -7.7753988058041873E-002
  0.36463520468479421     
 -0.14340771733906826     
  0.38143478908998946     
 -0.10538962690375958     
  0.28401736131880634     
  0.19689603510066236     
  0.34594440918744251     
  0.42519599282443044     
  0.41997727564794146     
  0.23966402681921961     
  0.13822858177572159     
  0.10882996601761795     
  0.25914207205577705     
  0.32698885315343090     
  0.36430750940923262     
 -0.20208709578672490     
 -0.10155862895938551     
   7.7027440992090204E-002
  0.14932926512610600     
  0.23722285139672619     
  0.33916440878434329     
 -0.22986085404378312     
 -0.14460359683048410     
   1.2116827895651772E-002
  0.19336507592443991     
  0.17051058088624693     
  0.15327781484589253     
  0.27191740407751741     
  0.29508522297035383     
  0.25737788850535936     
  0.19559518976544138     
  0.12480167660049349     
  -7.2856961964662209E-002
   8.8331317968408929E-002
 -0.28570811891284009     
 -0.23887133898568547     
  0.15555009830171096     
 -0.27671963137930911     
 -0.14953131034596212     
  -2.0218578551275887E-003
   5.3531230699776639E-003
  -6.5480834771616259E-002
  0.10635071535252442     
  -1.9681512496827671E-002
   8.1339273394612971E-002
   2.4161583272937701E-002
  -9.3546093597496882E-002
 -0.18271847075888312     
 -0.20422937990070839     
  -3.8675490284242872E-002
  0.10690215335259295     
 -0.29079025317798723     
 -0.39005359951844654     
 -0.14379040608505594     
   1.9947089023857445E-002
 -0.37461573446380680     
 -0.24006616874794107     
  -8.7830940598789931E-002
   6.2426205368700277E-002
  -5.4904023071969260E-002
 -0.15978669507049070     
 -0.28199696588562323     
   2.0503420753693102E-002
 -0.10623327861073206     
  -1.8147375988744219E-002
   2.2537071144466014E-002
   2.7377518991396149E-002
  0.14744615687016602     
  0.21310188671502889     
   2.6372889098556986E-002
  0.20651029324649015     
   9.6013744570462634E-002
   1.3697642377709816E-002
   2.9869773808674584E-002
   2.5253317450858986E-004
  -1.7663169664137929E-009
   6.1338399006165671E-009
  -0.0000000000000000     
  -5.1979875932457759E-002
  -4.8649163112587428E-002
  -6.1059177792733496E-002
  -5.8497153903897120E-002
  -3.9982133981189411E-002
  -5.6610167156238032E-002
  -4.9868436269575746E-002
  -6.3479874472674697E-002
   3.8473799140967414E-002
   7.2748971615835906E-002
  -4.1092222120961114E-002
  -5.3803070115585605E-002
  -5.4887699605406272E-002
  -8.4004017831246502E-002
  -6.4814475111280925E-002
   3.2065996623752369E-002
  -3.9571485373861168E-002
  -3.3927320749853260E-002
  -4.7009387483146092E-002
  -5.0282149858197109E-002
  -2.6837077611922881E-002
  -2.2379130436604194E-002
  -2.6320484769291235E-003
  -5.5382465657547435E-003
  -3.9321859162962491E-002
  -6.5045750906389074E-002
   7.9403504144063483E-003
  -2.7143899252064290E-003
  -2.0182751872757983E-002
  -3.4947367851948977E-002
  -1.9546375970489357E-002
  -5.8061285022722895E-003
   2.2527579010762039E-003
   1.6500296628375322E-003
   1.1589547276768581E-002
  -4.5634305426649910E-002
  -2.3994128674897253E-002
  -8.0304798269435311E-003
  -5.6060622348242259E-002
  -5.8413700887842958E-002
   5.2697835331479780E-002
  -5.2709606511260845E-002
  -3.8797186785422266E-002
  -4.8451744397653290E-002
  -5.7987157637472704E-002
  -6.3217108193640889E-002
   8.7390395920208409E-003
   2.0803728767233832E-004
  -1.4202978800833063E-002
  -2.9782410203108282E-002
  -4.2422368056714746E-002
  -3.6044699771962091E-002
  -4.4116438725919374E-002
  -4.2507575692226206E-002
  -4.1616198334800410E-002
   1.8484280890983654E-002
   6.6063449151331317E-003
  -2.2817157157451255E-002
   3.4593353718750899E-002
   5.7206533754279976E-002
   7.7517276853154279E-002
   9.1574699360649631E-002
   9.7247604048361982E-002
  -2.7525317378283294E-002
  -3.2052172284803462E-002
   4.3950830612137351E-002
   5.5066171045157070E-002
   5.2146246311749640E-002
   3.5884641183572930E-002
   1.2324702705501039E-002
  -5.3039037044002119E-002
  -4.5650114799160355E-002
  -2.9915760912175328E-002
  -8.7472356305579382E-003
   2.4396344308546251E-002
   4.0706128933339497E-002
   2.5761287303884807E-002
   1.6141708470419989E-002
  -1.1623182194816541E-004
  -2.3819226562411186E-002
  -1.6826914638660453E-002
  -1.7597154901119166E-003
  -2.8472334056847546E-002
   1.9862779117067214E-002
   3.3836876314730695E-002
  -9.1806126354071843E-002
  -1.7181156182777487E-002
   3.5635247741215459E-002
  -4.6052291361998289E-003
   2.5441597704381123E-002
   6.4770775763882326E-003
   7.9771161201780492E-003
   1.3148280710557890E-002
  -9.8262982850666515E-003
   1.3898475241830650E-002
  -2.1697125017076622E-002
   9.1240637124675936E-003
  -2.4095392100952635E-002
   1.2953316962866718E-003
  -1.6886768510427502E-002
  -3.6802251967129170E-002
  -7.0917595728130153E-003
   1.4649003398991993E-002
   3.0691072493905250E-002
   4.1925282788910362E-002
   4.6053056081679804E-002
  -2.2828379573588395E-002
   4.2363960785346919E-002
   8.1636362197719844E-002
   5.8749558681479172E-002
   7.5420659831133330E-002
  0.11912258324212119     
   9.5615973319086403E-002
 -0.11725010381390161     
  -6.4283465188575903E-003
   4.0425662509551270E-002
  -2.1287729076863325E-003
  -1.2289474362851348E-002
  -1.0408034180766967E-002
   1.4665008733294573E-002
  -1.0314708544921255E-002
  -1.4324850159811095E-002
   2.3892238798453057E-002
   3.1654160473076759E-003
   1.8635248303333702E-002
   4.2689607604253894E-002
   6.0031137495568619E-002
   6.3679583548839985E-002
   1.7021116717214929E-002
   5.2279528823106838E-002
   6.3373683125491881E-002
   3.0920810451799091E-002
   8.2076128161243073E-002
   8.4749663398158981E-003
   9.3892699040964353E-002
  -8.7123321139628510E-003
   2.0050954118235997E-003
   2.2339635323618177E-002
   4.7061180807435675E-002
   7.1160046630333595E-002
   9.1029476592862105E-002
  0.10457226185263982     
  0.11074535089669299     
  0.10897856235887393     
   9.9044156533624791E-002
   6.9299664478506440E-002
   5.7097030210263237E-002
 -0.12566548003204814     
 -0.12823350979363404     
   3.1408919012807256E-002
   2.0257362525460419E-002
   3.5239004505548871E-002
   9.9898381448156479E-002
   9.0050295634494432E-002
   7.3301297256138820E-002
   6.4546864766286988E-002
  -2.1475080776638924E-002
   4.1573467653400580E-002
   5.1412720910826229E-002
   7.0471902553610188E-002
   7.5848835006203832E-002
   6.4388007827908683E-002
  -4.2062980368399526E-002
  -3.3935434624831852E-003
  -7.1352503667690293E-003
   7.2288542361833130E-002
   3.9293262054399111E-003
   7.8724353861282598E-002
   2.5373350473271637E-002
   6.7589023557613953E-002
   5.0521329777540133E-002
   4.2923260651466677E-002
   1.4993082212332962E-002
   4.9416955023804138E-002
  -4.9199606089975027E-003
  0.10393937391472795     
  -9.5937849927745754E-003
  0.10395054375311334     
   1.6522412177329415E-003
  0.10112892621287513     
   2.3774480028138742E-002
   9.5239777066889908E-002
   4.9074242474054314E-002
   8.4801710092847898E-002
   7.0576151910358237E-002
   6.8533200989508769E-002
   8.4212127134438708E-002
   8.9478484604046130E-002
   8.8618253226712657E-002
   8.4951687514724275E-002
   8.1205694017487728E-002
   7.8416876616588971E-002
  -5.6454317518074542E-003
   1.4217670396943917E-002
   5.6865637970103758E-002
   3.5015438175627744E-002
   7.0955868878175468E-002
   6.2273044961725782E-002
   1.8222568050313186E-002
  -1.4619885982036842E-002
   6.8286565931153217E-002
   7.7142737717457194E-002
   6.7547034571925707E-002
   9.8392875518887608E-003
  -9.9476723112626834E-003
   1.4340717753200227E-002
   3.4187061449353261E-002
   4.1519121207809283E-002
   4.9590380343826389E-003
  -2.1679772862036806E-002
   6.6705331774093171E-002
  -3.0565963151814698E-002
   5.2806423531992344E-002
  -1.9215317482798047E-002
   1.9548132475866731E-002
   6.3340680845524492E-003
   1.1235125122697559E-002
   1.2011339571990425E-002
   6.4553943888599211E-002
   5.6983142722825932E-002
   3.9218579304230408E-002
   3.7530828592261506E-002
   1.2491253977886477E-002
  -1.1026562190149398E-002
  -3.0979809810135869E-002
 -0.10907599432396460     
  -7.9969339077713350E-002
  -1.3509886747967206E-002
  -8.1324244606661586E-002
  -5.2100086441700950E-002
  -1.7156059661341497E-002
  -8.3107470988203064E-002
  -3.8303313133662531E-002
   5.4137840136467739E-002
   2.9591738722232266E-002
  -6.5106144577316925E-003
  -5.1809590114280740E-002
   4.7349863669977746E-002
   2.4757459161091958E-002
   4.3423987903212252E-002
  -1.1794616913002336E-002
   5.2181397749561452E-002
  -4.6050551038156917E-002
   4.2162305079213723E-002
  -6.2408304844628414E-002
   1.6799388571312593E-002
  -5.4262174322265828E-002
  -2.6433944378661228E-002
  0.10099050509812596     
   8.2673734519769018E-003
  -9.9798030530803356E-002
   3.5654459105434008E-002
 -0.10429727339163632     
   4.5858894628830894E-002
  -9.3681200473263587E-002
   3.6072355602543626E-002
  -6.9517375931165762E-002
   9.8877426334064347E-003
  -2.5547777969275050E-002
  -6.2486362046473294E-002
  -9.4516841236438540E-002
 -0.11730736121681209     
 -0.12513211117753320     
 -0.12224856377209284     
  -9.4373609768050551E-002
 -0.13786956756952720     
 -0.13153942002610028     
  -7.0238882938162370E-002
  -3.5484281108332620E-002
  -4.4034108255821533E-002
  -6.9300507304800515E-003
   2.1484734816322470E-002
   2.8852866041270894E-002
   1.0330447880698004E-002
  -5.6608151437287507E-002
  -1.8503295419381456E-002
   1.6610439219858081E-002
  -7.9071872385787792E-002
  -7.5360517062200261E-002
  -4.8094687246070952E-002
  -1.0522301923457735E-002
  -1.9223930049769029E-002
   2.0933416272888521E-002
  -5.8427918424433872E-002
   2.5592438452472093E-002
  -5.5183981621604932E-004
  -5.6732046610832448E-002
  -1.8062210189000529E-002
  -9.8782505147220812E-002
   1.5388053710484132E-002
 -0.11898638258932874     
   3.0180322789200104E-002
   2.1978756218730446E-002
 -0.13818116525483623     
  -4.4989187610467943E-003
 -0.13084798017714833     
 -0.11329606544507767     
  -7.2235954663952620E-002
  -9.6551635546376455E-002
 -0.11068546678293373     
 -0.12053117649109568     
 -0.12335206106733278     
  -9.1165042972138330E-002
  -5.8307907573259980E-002
  -6.7896165796253835E-002
  -8.3600438966958152E-002
   5.1684980422533423E-002
  -9.1091730426716574E-002
  -5.4398833182369523E-002
  -8.5579982521621439E-002
  -6.7742063501587804E-002
  -2.7456112883093273E-002
  -8.2177754444275164E-002
  -9.1412806996495025E-002
  -7.0373134747080360E-002
  -7.6266775697818423E-002
  -2.9644407328101339E-002
  -9.4154950186990993E-002
   1.0675178673236011E-002
  -9.5189424764394806E-002
   3.1880105530082414E-002
   2.5585760651981499E-002
  -3.8450322472339390E-003
  -5.7335024807867195E-002
  -4.3202432572946863E-002
  -7.1302001945337701E-002
  -7.7144340482210000E-002
  -7.1528972334368682E-002
  -4.4894808140960925E-002
  -2.2472991496174929E-002
   8.4445759244917415E-002
   5.7967993230378663E-002
   6.8201115120550174E-002
  -1.9480358576967921E-002
  -4.3694068430396589E-002
   1.4523128050958135E-002
  -3.1117004959294217E-002
   4.2959599961370221E-002
   4.1408690272418017E-002
   1.1884265769113635E-002
  -3.1704807774587097E-002
  -7.1160101475602255E-002
   1.6557078840406726E-002
  -8.7325125211740628E-002
  -6.0220960920339732E-002
   2.3564679388971110E-002
   2.2884012952806686E-002
  -2.1238410868358967E-002
   5.5104898838805906E-002
  -6.3373485074577407E-002
  -8.6726979102556098E-002
  -8.3825077476375881E-002
  -5.6601544212535423E-002
  -1.3779101914397166E-002
   3.2898711277714793E-002
   7.2235852820549867E-002
   9.7636906450045774E-002
  0.12510933746791339     
  0.11019911692472281     
  -2.5669142340068972E-003
   4.2613853415533684E-002
   8.2053993912279105E-002
   7.0249522853874334E-003
   4.9675596208152983E-002
  0.10724050905773959     
   7.3620400587239510E-002
  0.10842086973291726     
  0.11449023707188095     
  0.11728681329557081     