# vtk DataFile Version 3.1
Mesh with Data
ASCII
DATASET UNSTRUCTURED_GRID
POINTS         7552 float
      0.200000E+03      0.000000E+00      0.200000E+03
      0.000000E+00      0.000000E+00      0.200000E+03
      0.197500E+03      0.000000E+00      0.200000E+03
      0.195000E+03      0.000000E+00      0.200000E+03
      0.192500E+03      0.000000E+00      0.200000E+03
      0.190000E+03      0.000000E+00      0.200000E+03
      0.187500E+03      0.000000E+00      0.200000E+03
      0.185000E+03      0.000000E+00      0.200000E+03
      0.182500E+03      0.000000E+00      0.200000E+03
      0.180000E+03      0.000000E+00      0.200000E+03
      0.177500E+03      0.000000E+00      0.200000E+03
      0.175000E+03      0.000000E+00      0.200000E+03
      0.172500E+03      0.000000E+00      0.200000E+03
      0.170000E+03      0.000000E+00      0.200000E+03
      0.167500E+03      0.000000E+00      0.200000E+03
      0.165000E+03      0.000000E+00      0.200000E+03
      0.162500E+03      0.000000E+00      0.200000E+03
      0.160000E+03      0.000000E+00      0.200000E+03
      0.157500E+03      0.000000E+00      0.200000E+03
      0.155000E+03      0.000000E+00      0.200000E+03
      0.152500E+03      0.000000E+00      0.200000E+03
      0.150000E+03      0.000000E+00      0.200000E+03
      0.147500E+03      0.000000E+00      0.200000E+03
      0.145000E+03      0.000000E+00      0.200000E+03
      0.142500E+03      0.000000E+00      0.200000E+03
      0.140000E+03      0.000000E+00      0.200000E+03
      0.137500E+03      0.000000E+00      0.200000E+03
      0.135000E+03      0.000000E+00      0.200000E+03
      0.132500E+03      0.000000E+00      0.200000E+03
      0.130000E+03      0.000000E+00      0.200000E+03
      0.127500E+03      0.000000E+00      0.200000E+03
      0.125000E+03      0.000000E+00      0.200000E+03
      0.122500E+03      0.000000E+00      0.200000E+03
      0.120000E+03      0.000000E+00      0.200000E+03
      0.117500E+03      0.000000E+00      0.200000E+03
      0.115000E+03      0.000000E+00      0.200000E+03
      0.112500E+03      0.000000E+00      0.200000E+03
      0.110000E+03      0.000000E+00      0.200000E+03
      0.107500E+03      0.000000E+00      0.200000E+03
      0.105000E+03      0.000000E+00      0.200000E+03
      0.102500E+03      0.000000E+00      0.200000E+03
      0.100000E+03      0.000000E+00      0.200000E+03
      0.975000E+02      0.000000E+00      0.200000E+03
      0.950000E+02      0.000000E+00      0.200000E+03
      0.925000E+02      0.000000E+00      0.200000E+03
      0.900000E+02      0.000000E+00      0.200000E+03
      0.875000E+02      0.000000E+00      0.200000E+03
      0.850000E+02      0.000000E+00      0.200000E+03
      0.825000E+02      0.000000E+00      0.200000E+03
      0.800000E+02      0.000000E+00      0.200000E+03
      0.775000E+02      0.000000E+00      0.200000E+03
      0.750000E+02      0.000000E+00      0.200000E+03
      0.725000E+02      0.000000E+00      0.200000E+03
      0.700000E+02      0.000000E+00      0.200000E+03
      0.675000E+02      0.000000E+00      0.200000E+03
      0.650000E+02      0.000000E+00      0.200000E+03
      0.625000E+02      0.000000E+00      0.200000E+03
      0.600000E+02      0.000000E+00      0.200000E+03
      0.575000E+02      0.000000E+00      0.200000E+03
      0.550000E+02      0.000000E+00      0.200000E+03
      0.525000E+02      0.000000E+00      0.200000E+03
      0.500000E+02      0.000000E+00      0.200000E+03
      0.475000E+02      0.000000E+00      0.200000E+03
      0.450000E+02      0.000000E+00      0.200000E+03
      0.425000E+02      0.000000E+00      0.200000E+03
      0.400000E+02      0.000000E+00      0.200000E+03
      0.375000E+02      0.000000E+00      0.200000E+03
      0.350000E+02      0.000000E+00      0.200000E+03
      0.325000E+02      0.000000E+00      0.200000E+03
      0.300000E+02      0.000000E+00      0.200000E+03
      0.275000E+02      0.000000E+00      0.200000E+03
      0.250000E+02      0.000000E+00      0.200000E+03
      0.225000E+02      0.000000E+00      0.200000E+03
      0.200000E+02      0.000000E+00      0.200000E+03
      0.175000E+02      0.000000E+00      0.200000E+03
      0.150000E+02      0.000000E+00      0.200000E+03
      0.125000E+02      0.000000E+00      0.200000E+03
      0.100000E+02      0.000000E+00      0.200000E+03
      0.750000E+01      0.000000E+00      0.200000E+03
      0.500000E+01      0.000000E+00      0.200000E+03
      0.250000E+01      0.000000E+00      0.200000E+03
      0.000000E+00      0.000000E+00      0.000000E+00
      0.000000E+00      0.000000E+00      0.197500E+03
      0.000000E+00      0.000000E+00      0.195000E+03
      0.000000E+00      0.000000E+00      0.192500E+03
      0.000000E+00      0.000000E+00      0.190000E+03
      0.000000E+00      0.000000E+00      0.187500E+03
      0.000000E+00      0.000000E+00      0.185000E+03
      0.000000E+00      0.000000E+00      0.182500E+03
      0.000000E+00      0.000000E+00      0.180000E+03
      0.000000E+00      0.000000E+00      0.177500E+03
      0.000000E+00      0.000000E+00      0.175000E+03
      0.000000E+00      0.000000E+00      0.172500E+03
      0.000000E+00      0.000000E+00      0.170000E+03
      0.000000E+00      0.000000E+00      0.167500E+03
      0.000000E+00      0.000000E+00      0.165000E+03
      0.000000E+00      0.000000E+00      0.162500E+03
      0.000000E+00      0.000000E+00      0.160000E+03
      0.000000E+00      0.000000E+00      0.157500E+03
      0.000000E+00      0.000000E+00      0.155000E+03
      0.000000E+00      0.000000E+00      0.152500E+03
      0.000000E+00      0.000000E+00      0.150000E+03
      0.000000E+00      0.000000E+00      0.147500E+03
      0.000000E+00      0.000000E+00      0.145000E+03
      0.000000E+00      0.000000E+00      0.142500E+03
      0.000000E+00      0.000000E+00      0.140000E+03
      0.000000E+00      0.000000E+00      0.137500E+03
      0.000000E+00      0.000000E+00      0.135000E+03
      0.000000E+00      0.000000E+00      0.132500E+03
      0.000000E+00      0.000000E+00      0.130000E+03
      0.000000E+00      0.000000E+00      0.127500E+03
      0.000000E+00      0.000000E+00      0.125000E+03
      0.000000E+00      0.000000E+00      0.122500E+03
      0.000000E+00      0.000000E+00      0.120000E+03
      0.000000E+00      0.000000E+00      0.117500E+03
      0.000000E+00      0.000000E+00      0.115000E+03
      0.000000E+00      0.000000E+00      0.112500E+03
      0.000000E+00      0.000000E+00      0.110000E+03
      0.000000E+00      0.000000E+00      0.107500E+03
      0.000000E+00      0.000000E+00      0.105000E+03
      0.000000E+00      0.000000E+00      0.102500E+03
      0.000000E+00      0.000000E+00      0.100000E+03
      0.000000E+00      0.000000E+00      0.975000E+02
      0.000000E+00      0.000000E+00      0.950000E+02
      0.000000E+00      0.000000E+00      0.925000E+02
      0.000000E+00      0.000000E+00      0.900000E+02
      0.000000E+00      0.000000E+00      0.875000E+02
      0.000000E+00      0.000000E+00      0.850000E+02
      0.000000E+00      0.000000E+00      0.825000E+02
      0.000000E+00      0.000000E+00      0.800000E+02
      0.000000E+00      0.000000E+00      0.775000E+02
      0.000000E+00      0.000000E+00      0.750000E+02
      0.000000E+00      0.000000E+00      0.725000E+02
      0.000000E+00      0.000000E+00      0.700000E+02
      0.000000E+00      0.000000E+00      0.675000E+02
      0.000000E+00      0.000000E+00      0.650000E+02
      0.000000E+00      0.000000E+00      0.625000E+02
      0.000000E+00      0.000000E+00      0.600000E+02
      0.000000E+00      0.000000E+00      0.575000E+02
      0.000000E+00      0.000000E+00      0.550000E+02
      0.000000E+00      0.000000E+00      0.525000E+02
      0.000000E+00      0.000000E+00      0.500000E+02
      0.000000E+00      0.000000E+00      0.475000E+02
      0.000000E+00      0.000000E+00      0.450000E+02
      0.000000E+00      0.000000E+00      0.425000E+02
      0.000000E+00      0.000000E+00      0.400000E+02
      0.000000E+00      0.000000E+00      0.375000E+02
      0.000000E+00      0.000000E+00      0.350000E+02
      0.000000E+00      0.000000E+00      0.325000E+02
      0.000000E+00      0.000000E+00      0.300000E+02
      0.000000E+00      0.000000E+00      0.275000E+02
      0.000000E+00      0.000000E+00      0.250000E+02
      0.000000E+00      0.000000E+00      0.225000E+02
      0.000000E+00      0.000000E+00      0.200000E+02
      0.000000E+00      0.000000E+00      0.175000E+02
      0.000000E+00      0.000000E+00      0.150000E+02
      0.000000E+00      0.000000E+00      0.125000E+02
      0.000000E+00      0.000000E+00      0.100000E+02
      0.000000E+00      0.000000E+00      0.750000E+01
      0.000000E+00      0.000000E+00      0.500000E+01
      0.000000E+00      0.000000E+00      0.250000E+01
      0.200000E+03      0.000000E+00      0.000000E+00
      0.250000E+01      0.000000E+00      0.000000E+00
      0.500000E+01      0.000000E+00      0.000000E+00
      0.750000E+01      0.000000E+00      0.000000E+00
      0.100000E+02      0.000000E+00      0.000000E+00
      0.125000E+02      0.000000E+00      0.000000E+00
      0.150000E+02      0.000000E+00      0.000000E+00
      0.175000E+02      0.000000E+00      0.000000E+00
      0.200000E+02      0.000000E+00      0.000000E+00
      0.225000E+02      0.000000E+00      0.000000E+00
      0.250000E+02      0.000000E+00      0.000000E+00
      0.275000E+02      0.000000E+00      0.000000E+00
      0.300000E+02      0.000000E+00      0.000000E+00
      0.325000E+02      0.000000E+00      0.000000E+00
      0.350000E+02      0.000000E+00      0.000000E+00
      0.375000E+02      0.000000E+00      0.000000E+00
      0.400000E+02      0.000000E+00      0.000000E+00
      0.425000E+02      0.000000E+00      0.000000E+00
      0.450000E+02      0.000000E+00      0.000000E+00
[...]
CELL_DATA        14782
SCALARS cvs float
LOOKUP_TABLE default
  0.11430711002438020     
   7.8049666284139688E-002
  -8.7580704627326894E-002
   8.4104118064812744E-002
 -0.35739451001656058     
  0.13548520133391556     
   7.5910193165321910E-002
  0.19856669877837765     
  0.19555700478364685     
  0.17861304610214856     
  -2.5530345976899280E-003
   1.2275798950739471E-002
   5.6890712772293683E-002
   4.7525326028991823E-002
   4.1395194836950207E-002
  0.10170576957670677     
  0.11011468222973410     
 -0.15473138483437426     
  -2.2735362762751794E-003
   6.4480449116135527E-002
   3.8846677096393771E-002
 -0.17560487898743971     
   7.7130264605231327E-002
   1.6923397256708959E-002
   2.7517062441493996E-002
  0.11013975753890407     
  0.14999627520283665     
  -4.7195671775410453E-002
  -5.4516389127560363E-002
  -2.8978486694120210E-002
   1.0457787368653798E-002
   4.7224317253882972E-002
  0.10002093166212692     
  0.12396905221326635     
  -4.9833235160470703E-002
  0.14608664429782764     
  -7.7704801457907036E-002
  -8.1292993556634635E-002
  -9.9714376506193747E-002
 -0.20243270638624533     
 -0.17849230560707496     
 -0.31808782026593546     
 -0.39154432790684596     
 -0.38652845889955156     
 -0.11085259926955188     
 -0.13682724561696874     
 -0.17398440296847331     
 -0.17417685468538421     
 -0.19528962960668717     
   4.0682211853443472E-002
 -0.22657454940439262     
 -0.10815569100916458     
 -0.21454031198699630     
 -0.12308280003125144     
 -0.22625667557587681     
 -0.13899146767635340     
 -0.19167121741023441     
 -0.13662797274558078     
 -0.14217662972275621     
 -0.10154654213290323     
 -0.11115179637490095     
 -0.11629895412327268     
 -0.20523293264580644     
  0.12535110786256176     
 -0.20876539604838079     
   6.3356681831815670E-002
 -0.25372462639257892     
  -2.9998261054513198E-002
 -0.26354856383299741     
 -0.21854583710490499     
  0.32399475428143815     
  0.25678683181524087     
  -1.4777223162400183E-002
  -7.7619309361822889E-002
  0.14916758141007347     
  0.16566549976983194     
 -0.23376438718494075     
  0.14831617578724762     
 -0.10086375815432906     
  -7.4183474319851617E-003
  0.24130602348257443     
 -0.10014651639830628     
  0.28249629389273728     
  -1.5566348216238347E-002
   4.4484091552921504E-002
  -1.1209055397602787E-002
  0.13691944575939097     
 -0.21302347926873841     
 -0.31781126411003147     
  0.15920663153149189     
  0.11348212269320573     
   2.4405770486291445E-002
  -2.0763711881778474E-002
  -1.5780142603706721E-002
  0.11251459480060221     
 -0.30031782412892871     
 -0.35957397521827827     
 -0.12135031488895576     
  0.11497552847975734     
 -0.36014959313904932     
 -0.29287532337861599     
 -0.16819691301170958     
  -1.7876746668939549E-002
  0.19461725110282188     
  0.22395554821649344     
  0.53925272905918376     
  0.13872153449698277     
  0.24459499598846152     
   5.1320220617972784E-002
  0.17824998780532550     
   7.8146520476353995E-002
   9.8754975929274125E-003
  0.28215685047616340     
  0.24243750925905042     
  0.10961706689564821     
  0.28491291740490915     
   5.9933773387235156E-003
  0.26043117878656663     
  -3.4962935551936497E-002
  0.21217188318211239     
  -8.3466260687113297E-002
  0.15370242782845181     
 -0.14433742975725411     
  0.10530945507409195     
   8.3403367891107610E-002
 -0.19250647664461001     
   8.8833255703346603E-002
  -6.9928976510494581E-002
  0.10424911469531803     
  0.10009629332429751     
  0.25918638990601883     
   5.5057490491998651E-002
  -4.4473602097322429E-002
  0.46215856464914412     
 -0.17066673455516645     
 -0.26083471062635888     
 -0.24921810875747885     
 -0.11889694669525408     
   7.7146989359736087E-002
 -0.26669107415373228     
  -3.3968808284432717E-002
   6.2165421520199854E-003
  0.18505372100609643     
  0.28342206310273871     
  0.26478691892961875     
 -0.17859268411356233     
   7.1609302979368669E-002
  -1.4710053474973468E-002
 -0.26340769841877920     
  -4.3897432464975468E-002
 -0.20138276651391898     
  -7.5274674223161350E-002
  -6.7623074789261731E-002
 -0.11734189227776470     
 -0.29748676165938626     
  0.16655579642481277     
 -0.15762015686784170     
  0.23730229991195689     
 -0.17071483362142698     
  0.15640787148364038     
 -0.12604482543066922     
  -2.1820689498995793E-002
  -5.0088223630345124E-002
 -0.22623651405341130     
   4.3430554051786419E-002
  0.68604304071910005     
 -0.34557116852762210     
 -0.20724238077436105     
  0.21152778322828447     
  0.22396948068470526     
  0.14206392100910131     
  -2.8108761443211866E-002
 -0.22220149653351823     
 -0.34738815932929945     
 -0.34716929601339436     
 -0.24678451338065760     
 -0.30292904982011432     
  0.40584218646294201     
  0.53147049570816629     
 -0.10928525638425848     
 -0.10229505385841814     
 -0.15948018396215247     
 -0.17587880609175199     
  0.17139618737842874     
 -0.18479989631066179     
 -0.17355150601174041     
 -0.15830978710451502     
 -0.10784703779989030     
   1.1219904323137908E-002
  -9.2907431078086078E-002
  0.15365087628419460     
 -0.15332724154783262     
 -0.20034978337099357     
 -0.20273167397852809     
  -4.0506081769035585E-003
 -0.16912100071274583     
 -0.26570194715183132     
   4.3381092267505361E-002
  0.24654323106294240     
  0.41475475162029118     
  0.47152535689980335     
  0.37572244959013490     
  0.16193462632344260     
  -6.3942736475134682E-002
  0.76008173018052938     
 -0.25456995207437250     
  0.11637447258577038     
   4.6943601118140721E-002
  -7.9495284647960213E-002
   1.2746086077931040E-002
  0.15245386577011200     
  -5.4269732287152206E-002
   6.3834711289497956E-002
  -2.4315399513991032E-002
  0.26025132246114002     
   7.3331872665859638E-002
  -5.7210246004008286E-002
  0.21030475578231972     
  0.20213917558272332     
  0.13465241635762570     
  0.37742865029450801     
   5.9259957487267423E-002
  0.55043908765007565     
   2.9135804416377975E-002
  0.67781215078346391     
   8.2205547150526831E-002
  0.20149012157668894     
  0.27427623818367741     
  0.68451616350985722     
  0.52875677997621584     
  0.59097088720758162     
 -0.72716886813307113     
  0.57613018025797269     
  0.43840688477047940     
  -4.4267610821506209E-002
  0.65825542271063087     
  0.61179708791207810     
 -0.38715644012876460     
  -3.0811816539969450E-002
  -6.3471541458258784E-002
  0.12639021444209286     
  0.38509096106459278     
 -0.20840111094126482     
  0.17104721692967340     
  0.48332013562216414     
 -0.18992509062241042     
  0.19091330982982105     
  0.28292271276973380     
 -0.10180452636976633     
  0.58628865580050227     
  0.70429902393795252     
  0.53998685855690398     
  0.15866760769111496     
 -0.50169592286273024     
 -0.48301289712599110     
  0.81303933010477869     
  0.49116476203976001     
  0.29121012288267756     
  0.28140467762088484     
  0.18920347161545625     
 -0.33844284994471086     
   4.1496856579050521E-002
  0.39301042739211317     
  -5.6751559921661754E-002
   4.9690554072280235E-002
  0.22406374185375585     
  0.32514493441314485     
 -0.28954779151805032     
 -0.13194937652262079     
 -0.68382189012811245     
   8.0185331481120670E-002
 -0.88648161377431522     
 -0.85940635004372257     
   9.1301315028748664E-002
 -0.59221442098605159     
 -0.16642938378680291     
 -0.44433679880981380     
 -0.63856672794581537     
 -0.73172753932790158     
 -0.58612005352628882     
  -4.3765681423692457E-003
 -0.58469253292327861     
 -0.45639007757932215     
 -0.52846487522884145     
 -0.79289536580501707     
 -0.14346970602060816     
  -4.1821763692620473E-002
 -0.19513024244080063     
 -0.12416860319284174     
 -0.48974284750094316     
   2.3500546583321374E-002
 -0.81453199948538413     
   7.7677708303674126E-002
 -0.11878857034480400     
  -8.1669835154152493E-002
  0.17920445284336303     
 -0.83084751371788390     
 -0.93232705150201622     
 -0.63597532855223082     
  -6.2475149449963713E-002
  0.76181570824782274     
  0.71769054606603500     
  0.16714914549032422     
  0.80614728789952828     
  0.18004027740164924     
 -0.41248406565681345     
 -0.35447243121175831     
  0.37685200121792678     
 -0.51198796951169401     
  -1.1804828605770978E-002
 -0.76299461889910003     
 -0.75237333862691269     
  -8.1626523532459472E-002
  -6.1455706421118417E-002
 -0.26452222353975258     
   1.1711360469271157     
 -0.49950905446238841     
   1.0922439618435926     
 -0.58910292980700130     
 -0.46302480846126026     
 -0.12909543559688846     
  0.35115184974296765     
  0.99835744415176930     
 -0.12551506037887453     
 -0.12364938876263784     
   7.6619986622026487E-002
  0.39890559573564305     
  -8.9330819772011905E-002
  0.79445450369211690     
  0.81069781164933885     
 -0.18583370480956163     
  0.56536562748941421     
 -0.22031470084950136     
  0.30415196072794248     
   2.1045257028946794E-002
  -2.0790705958243005E-002
  0.11124115693662806     
  -1.0731523464507009E-002
 -0.26379328453328604     
 -0.51585770918540963     
 -0.51921232218950042     
 -0.54591576184479840     
  -1.0147529031975948     
 -0.40511101083340256     
  -1.2521426012892678     
  -1.1286354557615985     
 -0.38947397891190361     
  -1.1051342814182665     
  -1.2849854277320811     
  -1.0374475519803230     
 -0.74950831887631542     
 -0.27496184627939146     
  0.68776896781644314     
 -0.56126618867444433     
  0.66019867312868374     
  -7.4370554590592830E-002
 -0.22289259078647147     
   4.4974453865702368E-002
  0.71775925177589794     
  0.60769586336903325     
  0.86548407689765372     
  0.51715887970118191     
  0.72399436980391119     
   2.6505679687198302E-002
  -1.7728066777543690E-002
  -1.8271203689420130E-003
  -5.1175384797354012E-008
  -6.6799159616077313E-008
  -0.0000000000000000     
  -9.3599285168841070E-002
  -5.2724231495987657E-003
   8.7471079435802804E-004
   1.9023702025735195E-002
  -1.3983356454735727E-003
   1.7362213695218710E-003
 -0.10155324135905675     
  -8.8110925462671040E-003
  -3.6584507762297783E-002
 -0.11878358746457535     
  -1.0882770157733604E-002
   5.9323605667320469E-003
   2.6657243399733608E-002
   8.5722348619841113E-002
  -2.5254738735741151E-002
  -3.9401740496433899E-002
  -1.4021219263218625E-002
  -2.1500583005043455E-002
  -5.9498796758680070E-002
  -7.8844696979300105E-002
   2.4354148568686843E-002
  -5.2646048331026998E-002
  -3.7233515521356036E-002
  -3.2748507072125843E-002
   8.7365354247889659E-002
  -4.4669108365596552E-002
  -6.8449575423309414E-002
  -5.4783980674700583E-002
  -3.8100789075918268E-002
  -8.8827751732534932E-002
  -8.6951831347642228E-002
  -8.1442814042395006E-002
  -7.2836300284737213E-002
  -6.1121317661695089E-002
  -4.3051664346391405E-002
   2.8252798635480490E-002
  -2.9035979120590593E-002
  -4.6301577211481565E-002
   2.4313239314990343E-002
   1.3772841659176537E-002
  -6.1128775917562571E-002
  -1.5385828408002802E-003
  -1.9626931149388537E-002
  -8.5961117860086284E-002
  -7.7343682052819662E-002
  -6.3042522347777685E-002
  -7.9110877260994916E-002
  -8.7521418648760063E-002
  -9.4471102321932829E-002
 -0.10002924300200160     
 -0.10305970159374438     
  -1.6412845606599887E-002
  -3.9482341894923688E-002
  -2.3175803401495110E-002
  -1.4153024649970383E-002
  -3.2374042496940765E-002
  -3.1911814851055771E-002
  -3.2583480672730307E-002
  -1.1659899088712681E-002
  -2.3617849903058891E-002
  -3.7388883628263495E-002
  -4.4848379634678706E-002
  -3.9847859556357335E-002
  -7.3302737230529685E-002
  -6.2781062216795733E-002
   7.9358150144089035E-004
  -1.1717175313860979E-002
  -1.7972114926316399E-002
  -1.6792294148828702E-002
  -9.8485194220499072E-003
   1.0012161312649783E-002
  -4.5731185479232338E-003
  -1.9973390304909865E-002
  -3.3552957191866573E-002
  -4.7536225969786808E-002
  -8.8277464602746852E-002
  -4.7734046152241257E-002
  -4.5835862313576989E-002
  -4.4703657279570007E-002
  -1.3860149409294517E-002
  -4.6768092529306811E-002
  -2.4371654803186062E-002
  -5.3086064668924404E-002
  -3.0350549569374545E-002
  -3.0412316899310139E-002
  -6.1642100034774872E-003
  -8.1296794177465229E-002
  -2.4913745739470968E-002
  -8.3497157725295229E-002
  -1.6128975972788347E-002
  -7.8048481238837064E-002
  -7.4546324642995564E-003
  -6.6133624328929358E-002
  -2.1425952945360715E-003
  -5.1634001533656264E-002
  -2.4585669352423971E-003
  -3.9188294735304302E-002
  -9.1892363258416730E-003
  -3.2351982171418311E-002
  -2.1543081934742254E-002
   9.4520212024301581E-002
  -3.9957766728991838E-002
  -5.2660518588188043E-002
  -6.3619884045390207E-002
  -6.6719644356982050E-002
  -6.1347462160253524E-002
   8.2898742078119148E-002
  -5.0578166766391083E-002
  -2.5617665961557536E-002
  -7.9669773560061795E-003
   6.7366394314253251E-003
  -4.1093866597336916E-002
  -2.8627794799254855E-002
   6.6727645844004993E-002
   2.0815114779434842E-002
   5.1485613089002367E-002
   6.2644355237398905E-002
   5.6789818207215327E-002
   4.6243698712372050E-002
  -8.5153281414262150E-002
  -6.9876545018750062E-004
  -4.1746857596354423E-002
   1.6554011809102327E-002
   3.2420716883020617E-002
  -7.6722800293668111E-003
  -1.9645099033203356E-002
  -2.7311713982173764E-002
  -2.7341926211730573E-002
   6.1642794568503995E-002
  -1.9918080201690860E-002
   3.1541230789919716E-002
  -7.7422928979965751E-003
   4.9192895818769948E-003
   6.3009572062414157E-003
  -2.1536113993662547E-002
   3.5900685316527001E-002
   5.1386784366583817E-002
   6.5130241472324005E-002
   7.2804653019420865E-002
   6.9491524939414906E-002
   5.2606077768284049E-002
   2.4866837005457290E-002
  -5.3992349036131593E-003
  -2.7689252491326692E-002
  -3.4497454003121958E-002
   4.9277424156278990E-003
   2.3090080841341256E-002
   3.1702595844565890E-002
  -2.8336239091042860E-002
   3.6672163538795453E-002
   5.3653004338409777E-002
  -2.5829182700499468E-003
   6.0533423466649180E-002
   4.0310958866835278E-002
   7.7136610760888194E-003
  -8.6143016621969437E-002
  -4.2597586712298054E-002
  -8.5654081229105283E-002
  -4.4454873928925352E-002
  -6.9180223469470059E-002
  -8.4682744386761641E-002
  -8.9795314849335436E-002
  0.22097505127485909     
  -8.2912059414857936E-002
  -8.0056338243181369E-002
  -9.2714712937506480E-002
  -7.2193438621375311E-002
 -0.11204008189531828     
  -5.4875968916736961E-002
 -0.11772813188471926     
  -2.6913418520670342E-002
 -0.11518007452467265     
 -0.11196914542728628     
   9.2194799016527981E-002
 -0.11323704056985831     
   6.1190918847491976E-002
 -0.11907957767867011     
   4.2907714327040006E-002
 -0.12464480160802685     
   1.5690311964001516E-002
 -0.12273863004469041     
  -5.6874498944506219E-003
 -0.10743261673972132     
  -9.7207843395014822E-003
  -7.6821031965601583E-002
   5.4914357064288905E-003
  -3.4493606387730427E-002
   1.0215219715906054E-002
   4.4603986091933188E-002
   5.8065500071513898E-002
   4.8529774742525324E-002
   2.5809638916446463E-002
   7.0075014583722992E-002
   5.1458360746171411E-002
  -3.8727524009826014E-002
  -3.0084871243277123E-002
 -0.13438670618588189     
 -0.12775844374026218     
  0.21031988653640088     
  0.21686435006958815     
 -0.11890163436900289     
 -0.12868572373334999     
 -0.11410477442373584     
  -5.7703387720893083E-002
  -5.8077306054095092E-002
  -8.2155788461467483E-002
   7.8653293333882435E-002
 -0.10779712886655310     
   1.1737252088695520E-002
   4.4591313874517369E-002
 -0.12062060532108401     
   5.6314035528268983E-002
  -8.3755773324394767E-002
   4.9013216838859799E-002
   2.4444052804578387E-002
   2.7857406315163084E-002
   6.0746992941730443E-002
   6.8271370976352788E-002
  -7.5275887910523809E-002
 -0.10271374468303754     
   3.5662213128324155E-002
 -0.10882958479637725     
  -8.5213503878395686E-002
  -3.5037506502597036E-002
   6.8971403662174510E-002
   9.0419082875952961E-002
  0.11364392131927586     
   1.8785057993479248E-002
  -6.0499339100568504E-002
  -4.7984775003961276E-002
   2.7896432059758836E-003
   2.0637996224784037E-002
  0.19329471966266148     
  -1.4153421165373313E-002
   6.7909523302214489E-002
  0.14263354101404785     
  0.21674504477450945     
   1.7042256395143254E-002
  0.10524988688390086     
  0.19896410631449271     
  0.17974507029652897     
  0.17498925653233061     
  0.22386021780843246     
  0.13169901886721494     
  0.23702307643176332     
   7.0088612477182330E-002
  0.23143682298461687     
  0.22327715406177454     
   5.4597482762224765E-002
  0.22324675106923134     
  -2.7959936380788385E-002
  0.23124647823208100     
   3.2455842650387673E-002
  0.23769643730551593     
   8.7095730274440231E-002
  0.22878892784194305     
  0.10838402282617157     
  0.19331471085156193     
  0.12948217989172450     
   4.9697154873898641E-002
  -2.0154321577018831E-002
  -5.0843085226392415E-002
  -6.7997943858073673E-002
  -6.4002799960512329E-003
 -0.14996815538246983     
  -6.0231362979584112E-002
  -8.1146167700635978E-003
  0.20106687030617465     
  0.20199632421032027     
 -0.14537835038562466     
 -0.16008070506941607     
 -0.17112028168950644     
 -0.18141816815028300     
 -0.18467899752711886     
  0.18220027470961486     
  0.17334592111880720     
  0.12323950339676862     
  0.15431441673475627     
  0.10715726980659079     
   6.3223047754957490E-002
   4.0647062274712542E-002
  0.14363848717017130     
   4.6983048692848639E-002
  0.13279591305877453     
  0.12475275195552958     
  0.17115342153563504     
  -4.0169848660270180E-002
  -7.8572895044309643E-002
  0.15794091270211341     
  -8.6388307809044190E-002
   7.8610493916153434E-002
  -6.5765456771488637E-002
  -2.4422359405271970E-002
  -4.9710599958524726E-002
   2.9468396532856038E-002
   1.1701728370597176E-002
   7.6141358808786225E-002
  0.13639443797125070     
  0.15794626518859337     
  0.13489997946429955     
  -1.8996880322470631E-002
  -7.5396018137128137E-002
 -0.12167422571185316     
  -4.5015385612078886E-002
   6.5591161832110847E-002
   4.6818173598364529E-002
  0.13857757219589184     
  -6.9380058652892929E-002
   5.1864799474937759E-002
  -2.9274054286113904E-003
 -0.12977146313076510     
 -0.16974002997705442     
  -1.2433907127897097E-002
  -6.3076423140356913E-002
 -0.10781848326665298     
 -0.11784477060307696     
 -0.13370871211736424     
  -7.0631554500501376E-002
 -0.13670041942643579     
  -8.6889457061674474E-003
 -0.12572523509714933     
 -0.11601052576780471     
 -0.11851492768109842     
   2.9337897466248715E-002
 -0.13320763437816049     
 -0.10630750442690028     
 -0.14921945334888870     
  -6.3970123345249152E-002
   2.3739287699179323E-003
   4.0002831978405033E-002
   9.7636097048385634E-002
   6.9916934756175230E-003
   2.3323273023503958E-002
 -0.14121647592259740     
  0.18120144749418909     
   1.1760658578571210E-002
  -6.2669837678580378E-003
   4.7505739600059334E-002
   8.4286238247560152E-002
  0.10366048869671393     
   9.4629336392656013E-002
   5.5759742785432942E-002
   5.5351554171976555E-002
  -7.5712296005904650E-002
 -0.12918937591371921     
  0.17564143684322375     
 -0.10093574654295481     
  0.18979538540267918     
  -2.9019777485704910E-002
  0.17526388136053081     
  0.13141860926563081     
   6.2234110201032838E-002
  -1.9628095661162106E-002
  -8.9853090392690210E-002
 -0.11909353437744516     
  -9.2024653855341670E-002
   1.5781069095058872E-002
  -7.1938576972810420E-002
  -6.0643709662826430E-002
  0.13739532681285443     
   6.9362748993187992E-002
  -6.1304643540347203E-003
  0.15700035621590472     
  0.14352416409605567     
   2.7192877363373474E-002
  -3.1696367128603839E-002
  0.11967035937511100     
 -0.11794259858998278     
   9.3188951808220004E-003