# vtk DataFile Version 3.1
Mesh with Data
ASCII
DATASET UNSTRUCTURED_GRID
POINTS         7552 float
      0.200000E+03      0.000000E+00      0.200000E+03
      0.000000E+00      0.000000E+00      0.200000E+03
      0.197500E+03      0.000000E+00      0.200000E+03
      0.195000E+03      0.000000E+00      0.200000E+03
      0.192500E+03      0.000000E+00      0.200000E+03
      0.190000E+03      0.000000E+00      0.200000E+03
      0.187500E+03      0.000000E+00      0.200000E+03
      0.185000E+03      0.000000E+00      0.200000E+03
      0.182500E+03      0.000000E+00      0.200000E+03
      0.180000E+03      0.000000E+00      0.200000E+03
      0.177500E+03      0.000000E+00      0.200000E+03
      0.175000E+03      0.000000E+00      0.200000E+03
      0.172500E+03      0.000000E+00      0.200000E+03
      0.170000E+03      0.000000E+00      0.200000E+03
      0.167500E+03      0.000000E+00      0.200000E+03
      0.165000E+03      0.000000E+00      0.200000E+03
      0.162500E+03      0.000000E+00      0.200000E+03
      0.160000E+03      0.000000E+00      0.200000E+03
      0.157500E+03      0.000000E+00      0.200000E+03
      0.155000E+03      0.000000E+00      0.200000E+03
      0.152500E+03      0.000000E+00      0.200000E+03
      0.150000E+03      0.000000E+00      0.200000E+03
      0.147500E+03      0.000000E+00      0.200000E+03
      0.145000E+03      0.000000E+00      0.200000E+03
      0.142500E+03      0.000000E+00      0.200000E+03
      0.140000E+03      0.000000E+00      0.200000E+03
      0.137500E+03      0.000000E+00      0.200000E+03
      0.135000E+03      0.000000E+00      0.200000E+03
      0.132500E+03      0.000000E+00      0.200000E+03
      0.130000E+03      0.000000E+00      0.200000E+03
      0.127500E+03      0.000000E+00      0.200000E+03
      0.125000E+03      0.000000E+00      0.200000E+03
      0.122500E+03      0.000000E+00      0.200000E+03
      0.120000E+03      0.000000E+00      0.200000E+03
      0.117500E+03      0.000000E+00      0.200000E+03
      0.115000E+03      0.000000E+00      0.200000E+03
      0.112500E+03      0.000000E+00      0.200000E+03
      0.110000E+03      0.000000E+00      0.200000E+03
      0.107500E+03      0.000000E+00      0.200000E+03
      0.105000E+03      0.000000E+00      0.200000E+03
      0.102500E+03      0.000000E+00      0.200000E+03
      0.100000E+03      0.000000E+00      0.200000E+03
      0.975000E+02      0.000000E+00      0.200000E+03
      0.950000E+02      0.000000E+00      0.200000E+03
      0.925000E+02      0.000000E+00      0.200000E+03
      0.900000E+02      0.000000E+00      0.200000E+03
      0.875000E+02      0.000000E+00      0.200000E+03
      0.850000E+02      0.000000E+00      0.200000E+03
      0.825000E+02      0.000000E+00      0.200000E+03
      0.800000E+02      0.000000E+00      0.200000E+03
      0.775000E+02      0.000000E+00      0.200000E+03
      0.750000E+02      0.000000E+00      0.200000E+03
      0.725000E+02      0.000000E+00      0.200000E+03
      0.700000E+02      0.000000E+00      0.200000E+03
      0.675000E+02      0.000000E+00      0.200000E+03
      0.650000E+02      0.000000E+00      0.200000E+03
      0.625000E+02      0.000000E+00      0.200000E+03
      0.600000E+02      0.000000E+00      0.200000E+03
      0.575000E+02      0.000000E+00      0.200000E+03
      0.550000E+02      0.000000E+00      0.200000E+03
      0.525000E+02      0.000000E+00      0.200000E+03
      0.500000E+02      0.000000E+00      0.200000E+03
      0.475000E+02      0.000000E+00      0.200000E+03
      0.450000E+02      0.000000E+00      0.200000E+03
      0.425000E+02      0.000000E+00      0.200000E+03
      0.400000E+02      0.000000E+00      0.200000E+03
      0.375000E+02      0.000000E+00      0.200000E+03
      0.350000E+02      0.000000E+00      0.200000E+03
      0.325000E+02      0.000000E+00      0.200000E+03
      0.300000E+02      0.000000E+00      0.200000E+03
      0.275000E+02      0.000000E+00      0.200000E+03
      0.250000E+02      0.000000E+00      0.200000E+03
      0.225000E+02      0.000000E+00      0.200000E+03
      0.200000E+02      0.000000E+00      0.200000E+03
      0.175000E+02      0.000000E+00      0.200000E+03
      0.150000E+02      0.000000E+00      0.200000E+03
      0.125000E+02      0.000000E+00      0.200000E+03
      0.100000E+02      0.000000E+00      0.200000E+03
      0.750000E+01      0.000000E+00      0.200000E+03
      0.500000E+01      0.000000E+00      0.200000E+03
      0.250000E+01      0.000000E+00      0.200000E+03
      0.000000E+00      0.000000E+00      0.000000E+00
      0.000000E+00      0.000000E+00      0.197500E+03
      0.000000E+00      0.000000E+00      0.195000E+03
      0.000000E+00      0.000000E+00      0.192500E+03
      0.000000E+00      0.000000E+00      0.190000E+03
      0.000000E+00      0.000000E+00      0.187500E+03
      0.000000E+00      0.000000E+00      0.185000E+03
      0.000000E+00      0.000000E+00      0.182500E+03
      0.000000E+00      0.000000E+00      0.180000E+03
      0.000000E+00      0.000000E+00      0.177500E+03
      0.000000E+00      0.000000E+00      0.175000E+03
      0.000000E+00      0.000000E+00      0.172500E+03
      0.000000E+00      0.000000E+00      0.170000E+03
      0.000000E+00      0.000000E+00      0.167500E+03
      0.000000E+00      0.000000E+00      0.165000E+03
      0.000000E+00      0.000000E+00      0.162500E+03
      0.000000E+00      0.000000E+00      0.160000E+03
      0.000000E+00      0.000000E+00      0.157500E+03
      0.000000E+00      0.000000E+00      0.155000E+03
      0.000000E+00      0.000000E+00      0.152500E+03
      0.000000E+00      0.000000E+00      0.150000E+03
      0.000000E+00      0.000000E+00      0.147500E+03
      0.000000E+00      0.000000E+00      0.145000E+03
      0.000000E+00      0.000000E+00      0.142500E+03
      0.000000E+00      0.000000E+00      0.140000E+03
      0.000000E+00      0.000000E+00      0.137500E+03
      0.000000E+00      0.000000E+00      0.135000E+03
      0.000000E+00      0.000000E+00      0.132500E+03
      0.000000E+00      0.000000E+00      0.130000E+03
      0.000000E+00      0.000000E+00      0.127500E+03
      0.000000E+00      0.000000E+00      0.125000E+03
      0.000000E+00      0.000000E+00      0.122500E+03
      0.000000E+00      0.000000E+00      0.120000E+03
      0.000000E+00      0.000000E+00      0.117500E+03
      0.000000E+00      0.000000E+00      0.115000E+03
      0.000000E+00      0.000000E+00      0.112500E+03
      0.000000E+00      0.000000E+00      0.110000E+03
      0.000000E+00      0.000000E+00      0.107500E+03
      0.000000E+00      0.000000E+00      0.105000E+03
      0.000000E+00      0.000000E+00      0.102500E+03
      0.000000E+00      0.000000E+00      0.100000E+03
      0.000000E+00      0.000000E+00      0.975000E+02
      0.000000E+00      0.000000E+00      0.950000E+02
      0.000000E+00      0.000000E+00      0.925000E+02
      0.000000E+00      0.000000E+00      0.900000E+02
      0.000000E+00      0.000000E+00      0.875000E+02
      0.000000E+00      0.000000E+00      0.850000E+02
      0.000000E+00      0.000000E+00      0.825000E+02
      0.000000E+00      0.000000E+00      0.800000E+02
      0.000000E+00      0.000000E+00      0.775000E+02
      0.000000E+00      0.000000E+00      0.750000E+02
      0.000000E+00      0.000000E+00      0.725000E+02
      0.000000E+00      0.000000E+00      0.700000E+02
      0.000000E+00      0.000000E+00      0.675000E+02
      0.000000E+00      0.000000E+00      0.650000E+02
      0.000000E+00      0.000000E+00      0.625000E+02
      0.000000E+00      0.000000E+00      0.600000E+02
      0.000000E+00      0.000000E+00      0.575000E+02
      0.000000E+00      0.000000E+00      0.550000E+02
      0.000000E+00      0.000000E+00      0.525000E+02
      0.000000E+00      0.000000E+00      0.500000E+02
      0.000000E+00      0.000000E+00      0.475000E+02
      0.000000E+00      0.000000E+00      0.450000E+02
      0.000000E+00      0.000000E+00      0.425000E+02
      0.000000E+00      0.000000E+00      0.400000E+02
      0.000000E+00      0.000000E+00      0.375000E+02
      0.000000E+00      0.000000E+00      0.350000E+02
      0.000000E+00      0.000000E+00      0.325000E+02
      0.000000E+00      0.000000E+00      0.300000E+02
      0.000000E+00      0.000000E+00      0.275000E+02
      0.000000E+00      0.000000E+00      0.250000E+02
      0.000000E+00      0.000000E+00      0.225000E+02
      0.000000E+00      0.000000E+00      0.200000E+02
      0.000000E+00      0.000000E+00      0.175000E+02
      0.000000E+00      0.000000E+00      0.150000E+02
      0.000000E+00      0.000000E+00      0.125000E+02
      0.000000E+00      0.000000E+00      0.100000E+02
      0.000000E+00      0.000000E+00      0.750000E+01
      0.000000E+00      0.000000E+00      0.500000E+01
      0.000000E+00      0.000000E+00      0.250000E+01
      0.200000E+03      0.000000E+00      0.000000E+00
      0.250000E+01      0.000000E+00      0.000000E+00
      0.500000E+01      0.000000E+00      0.000000E+00
      0.750000E+01      0.000000E+00      0.000000E+00
      0.100000E+02      0.000000E+00      0.000000E+00
      0.125000E+02      0.000000E+00      0.000000E+00
      0.150000E+02      0.000000E+00      0.000000E+00
      0.175000E+02      0.000000E+00      0.000000E+00
      0.200000E+02      0.000000E+00      0.000000E+00
      0.225000E+02      0.000000E+00      0.000000E+00
      0.250000E+02      0.000000E+00      0.000000E+00
      0.275000E+02      0.000000E+00      0.000000E+00
      0.300000E+02      0.000000E+00      0.000000E+00
      0.325000E+02      0.000000E+00      0.000000E+00
      0.350000E+02      0.000000E+00      0.000000E+00
      0.375000E+02      0.000000E+00      0.000000E+00
      0.400000E+02      0.000000E+00      0.000000E+00
      0.425000E+02      0.000000E+00      0.000000E+00
      0.450000E+02      0.000000E+00      0.000000E+00
[...]
CELL_DATA        14782
SCALARS cvp float
LOOKUP_TABLE default
  -1.6727817151204749E-003
   4.0778793623378606E-002
   6.6850293972963437E-002
   5.3138724292378925E-002
  -4.2620046306372089E-002
   3.2074449413750226E-002
  -8.0861304402387202E-002
  -3.7840415075794262E-002
  -6.6686417740605533E-002
  -7.8580483303876431E-002
  -2.3902702476123756E-002
  -4.7327089162957123E-002
  -5.2904503075402967E-002
  -3.0969470985303244E-002
  -1.9007723566435569E-003
  0.18231925536079005     
   4.2234743840725314E-002
  -5.6460352277881390E-002
  -2.3214573993237494E-002
  -4.1086681179973994E-003
  -1.5133971189083557E-002
   2.9182950250519191E-002
  -4.7122891942321610E-002
   1.1369153658622438E-002
   1.5935851581660665E-002
  -3.7781752037568006E-002
  -6.7467799398788803E-002
   8.0295526663863651E-003
   1.8181208559160025E-002
   1.3148720726038551E-003
  -3.3049219657878229E-002
  -6.6155160853710940E-002
  -7.0497529918078061E-002
  -4.0555880645995253E-002
   7.0439558149187606E-002
  -3.8663539878882203E-003
   6.8846928211339822E-002
   8.5393047885923029E-002
   8.7934999838527858E-002
  0.13089163029523868     
   6.4843849998424519E-002
  0.10990416929179911     
  0.14240047612819351     
  0.14552874928230014     
  -5.0614275328854680E-002
  -1.2915531082645967E-002
   1.8642887925946858E-002
  -2.0268700606338591E-004
   2.4354266526845750E-002
  -3.5499964575015641E-003
  -3.6796092634226535E-002
  -7.1947358389260058E-002
  -5.9399471002768156E-003
  -6.4448012559686296E-002
   2.7125175658979504E-002
  -3.1138405128553877E-002
   2.9468170772782531E-002
   1.2932360210778955E-002
   1.6530730822438416E-003
   4.9830542825444815E-002
  -3.7223001665851324E-002
  -6.1985340678275158E-002
   4.9993299511074299E-002
   4.2920892064234925E-002
  -2.1447994522525292E-002
   4.4492538256513676E-002
   2.7616680319892291E-002
   6.1159021266593561E-002
   7.0051443519800333E-002
   9.0583042761003568E-002
 -0.38567735261533198     
  -7.9066026673845213E-003
   6.5437004152848588E-002
   9.6206921436451182E-002
   4.0376587667364953E-002
   1.6343702376561145E-002
   1.7555430814229916E-003
   1.5691467184008625E-002
  -1.7608281259202160E-003
  -3.7389874405927767E-002
   8.5639459026103815E-002
   5.1389130662850765E-002
   5.4894205975598812E-002
   3.5338657736826581E-002
  -3.5974186950910224E-002
   6.0803096371852966E-002
   7.0820573766336728E-002
   5.6971726452437851E-002
  0.11370947030172446     
  -2.1100714758922459E-002
  -2.8303328167212122E-002
   4.9083579331855795E-003
 -0.21006217899322802     
   2.6726715769580557E-002
   9.4303252333835935E-003
  0.17035913701951327     
  0.17131730871919942     
 -0.23403718101706611     
   6.8529204032768354E-002
  0.13708790166034820     
   8.4381331752820601E-002
   3.4366785340343660E-002
   3.5792681184778560E-003
   1.3954922657792738E-002
   3.8363670284604807E-002
 -0.18524282428107358     
   7.0126904003419588E-002
   8.2825688244303718E-003
  0.14393306210151061     
   7.2520762994616322E-003
   5.7674300043870197E-002
   2.2773718330369175E-003
   9.1631636929819012E-003
  -1.4181577810149459E-002
   6.9137768621842149E-002
   7.4492340854314443E-002
  0.19796846180337505     
   2.4998844555657946E-002
  0.20919769583228420     
  -8.5634961997362591E-003
  0.17596224099587388     
   3.1071237611017405E-003
  0.11480287688456182     
   6.1004299138615700E-002
  0.13846680329168931     
  -2.0906035375231002E-002
  0.19864883293427901     
  -2.0633869117594530E-002
  0.21481807975586856     
  -7.4855488845073509E-003
   6.2947861707658877E-003
  0.11766178860788601     
   4.7517541348983033E-002
 -0.19911583280249923     
  -5.2192465035080654E-003
  -3.0392912330880005E-002
  -3.1637500950712098E-002
  -2.0720890129754414E-002
  -9.9474346624269308E-003
  -9.0005083649547138E-002
  -3.5236858183437927E-002
  -2.4778492273480252E-002
  -7.0203644349373942E-002
 -0.14198952002783302     
 -0.20845378862989450     
   8.4719926960778458E-003
  0.20025160303820450     
  0.17537251961528816     
  -3.3882507166037773E-002
  -1.2140414944300626E-002
   2.1434786425765767E-002
   2.9596724867874416E-002
  0.10605811978761878     
   9.5705627764285234E-003
 -0.12007550036854753     
  0.16754923691534054     
  -2.0830420367098160E-002
   9.2587184589630306E-002
   8.1143016695262776E-002
  -5.3366914089741764E-002
  0.15393316751622688     
  -7.6733420263158408E-002
  0.18382195383587926     
  -6.6935664969695940E-002
  0.15160579537026347     
  -2.7748723291116967E-002
  -2.3520932439450890E-002
  -2.0992870478922645E-002
  -2.5048397715689327E-002
  -9.5755042389407005E-002
 -0.12041422755300493     
 -0.10228289068066783     
  -6.3569342321120395E-002
  -3.0618565500766665E-002
  -1.9615779197261981E-002
  -3.1711886571925078E-002
 -0.19521401370992186     
 -0.31308183057348637     
  -2.4785657069469183E-002
  0.11911635814346354     
  -9.3916599698799175E-002
   2.5687429224097093E-002
  0.14243641400094123     
  -8.7962151163492597E-004
   9.9168066530650689E-002
  0.11686964492736054     
  -5.8300964859152565E-002
  -1.1542926091359332E-002
 -0.19219425773428978     
   6.7039455445825347E-002
 -0.23266600294801687     
  0.10151632498406540     
   1.0109036969573673E-002
 -0.11973118050477539     
  -3.7628125195345322E-002
  -1.8013636585076320E-002
  -4.0450587092888818E-002
 -0.28851587817298491     
 -0.26899906803119433     
 -0.19489341237425881     
 -0.10566478793018910     
  -3.9577139391951954E-002
  -1.6270425821177936E-002
  -3.1165798351330987E-002
  -2.5028451515141624E-002
   5.4789398296197216E-002
 -0.10011732542764636     
 -0.36333413736779840     
 -0.13890113217479194     
   5.4966462143715089E-002
  -7.5530940971558214E-002
   2.7739178976906337E-002
   7.8546445159622433E-002
  -2.2579991093505530E-004
  -3.6199062145122779E-002
 -0.16827037065293141     
 -0.27920814632783963     
   4.5056994449823327E-002
 -0.36248022296049781     
   6.9813332518003812E-002
 -0.28740297190589004     
   4.3266896476581301E-003
 -0.17797352361884364     
 -0.13187937677053149     
  -8.0797413069270491E-002
 -0.28026703055941937     
 -0.37688381493503720     
  -5.3889969424538199E-002
  -6.4850085473726976E-002
  -9.3432716425718598E-002
  -3.1678789565536117E-002
   6.0900536074304151E-002
  -2.3387713657632946E-002
  -5.3225354863637282E-002
   4.2482009464066021E-003
 -0.31189215116146518     
 -0.38357017378885550     
   1.7790634174800674E-002
  -9.0217592635088106E-002
 -0.25580018355379580     
 -0.24420190671539491     
 -0.35950095622141676     
   4.3810433595165427E-002
  0.46090361190777573     
 -0.18567108129458132     
  -5.8182188481302882E-002
  -6.4899880509849128E-002
 -0.33285199506462004     
   7.8638823045249079E-003
 -0.36438144043682208     
 -0.29181274283229236     
 -0.15515589277077352     
  -2.1070533434816470E-002
   5.3249055482812883E-002
  -7.5344182781081348E-003
 -0.10190700611363089     
  0.10186833686332603     
 -0.19760842235052811     
 -0.11524347662653511     
 -0.21075021525513513     
  0.20401055783588945     
   9.5145223116963190E-002
 -0.23745683221914748     
  -9.9951645284092783E-002
 -0.19684992591321024     
 -0.30665428698142166     
  -7.8212443076944443E-002
  -6.6496049225177989E-002
 -0.20723546512170127     
  0.20824558013095876     
 -0.27166562625280410     
  0.12064033080407786     
  -1.0296431583413729E-002
  -4.4861155223515164E-002
 -0.13204717851087072     
  0.14974141087694132     
  0.28414273342368240     
  0.30401600157701592     
  0.21291776264585838     
  -8.9241189785748354E-002
  -7.5229273590531553E-004
  -8.8618511441451137E-002
  0.22348446026875418     
  0.39940205469038842     
  0.40187989519778033     
 -0.13181069640854065     
  -3.1561087897703587E-002
  0.18780660326390924     
  -8.4127757324900208E-003
  0.21532336141698566     
 -0.15715529084360180     
  0.47050290498599728     
 -0.15202953326808311     
  0.22972285995811159     
  -5.4757173637134740E-003
   3.6202948926790685E-002
  0.43102061655801799     
  0.52545924270285926     
  0.47243545431805123     
  0.30592185437464514     
  -6.5610608311922697E-002
 -0.15855309367273773     
  0.35149448872995465     
  -1.8755297223091646E-003
  0.18290488309952913     
  0.39635045034140798     
 -0.12477946517357974     
  0.26493893184875328     
  0.42361987667332729     
  0.50713565606540900     
  0.56420169386691477     
  0.54924583101326818     
  -5.7926753717204960E-002
  0.14583436327915400     
  0.38874826932191286     
 -0.10153718299506194     
  0.55004766896622215     
 -0.11016581010056911     
  0.55435626976369634     
  0.40848026859366349     
  0.19013834820232711     
  -1.9049098097725925E-003
  -9.8717334491775291E-002
 -0.16472936054959716     
  0.15142239788296122     
 -0.12288401268676188     
   2.6264796990907280E-002
  0.38121592918894043     
  -4.3874801487828310E-002
  0.18153221281726056     
  -6.8644778223536151E-002
  0.39074202467941116     
 -0.18477282873676423     
  0.46130196561035230     
  -3.7184687303135150E-002
  0.13757307348646697     
  0.11845098731524895     
 -0.12106095007415311     
 -0.25654499590623714     
 -0.23760724542733547     
  0.12263345740506121     
  0.32942918560579360     
   3.8559635727346553E-003
 -0.25213197082768335     
  0.27687171071897720     
  0.51323274417155729     
  -7.5260870721788220E-002
  0.21905282146744837     
  0.47364513626577720     
  0.66899441465833198     
  0.55958063818270654     
  0.37488277134528569     
   9.8580131317385050E-002
  0.67961918966935642     
  0.34428402136705538     
  0.52431828040042039     
  0.60386391191214528     
  0.65447102395586398     
  0.43128998596404189     
  0.51883209662476526     
  0.34367236038041366     
  0.29276109771222791     
  0.16034807782565311     
  -9.6876355965514731E-003
   1.4592383190391274E-002
  -3.1222346189830044E-003
  -2.8429822277772338E-008
  -1.2658295202987973E-008
  -0.0000000000000000     
   6.8246637321536067E-003
  -2.4425916689927489E-002
  -2.7552479903191464E-002
  -4.0214504469167987E-002
  -3.7537733039181551E-002
  -2.8471857121252695E-002
   7.3884673426916920E-003
  -2.3083102294441486E-002
   1.2865027836521978E-002
   4.9343015447374905E-002
  -3.7287116229126026E-002
  -4.1095500214823222E-002
  -3.2764240778672460E-002
  -4.1786617908453672E-002
  -1.7134572001405165E-002
   1.2927103368586546E-003
  -2.4832094324288755E-002
  -2.0071019523442962E-002
  -3.2852025977293227E-003
   3.1641764831116860E-003
  -2.1608265279948941E-002
  -2.0323359623397187E-002
   4.5889777103757329E-002
  -1.1223089794134127E-002
  -2.8563700511746823E-002
  -1.1761378270905336E-002
  -1.2791056872209902E-002
  -1.8451272363870470E-002
  -2.6178404371045273E-002
  -1.2124882253036973E-002
  -1.5287492067860668E-002
  -1.7997803300718131E-002
  -2.0245299697198831E-002
  -2.2737518864326851E-002
  -1.1558478716209037E-003
  -1.9215863149861206E-002
  -3.1620968932612840E-002
  -2.6428560697601723E-002
  -3.6031440785785962E-002
  -4.2167046985610759E-002
   3.7736418665216764E-002
  -4.1039987362096249E-002
  -3.4652805956773260E-002
  -9.2354133802467347E-003
  -7.6916141860162686E-003
  -8.4227204225856642E-003
  -8.8776267137782149E-003
  -5.6109290572315439E-003
  -2.0866255352006285E-003
   1.8160275134830226E-003
   5.3700722556115459E-003
  -1.5332871907479177E-002
  -1.1316006511727109E-002
  -1.8999606584786943E-002
  -2.4125351629031191E-002
  -2.7837196983474550E-003
  -3.1133961818987886E-003
  -9.9456847438188604E-003
   1.1428031916440883E-002
   1.7096201415428256E-002
   2.2799021437395175E-002
   2.8112428482183080E-002
   3.3154156657297498E-002
   3.6391113199436942E-002
   3.5140272617762029E-002
   3.8193794581304764E-002
   3.7657314057636351E-002
   3.2996958696294286E-002
   2.1723510034559843E-002
   4.0711436562616068E-003
  -4.4290870629324838E-002
  -3.8975473759508356E-002
  -2.7366120494418941E-002
  -1.3500232952631442E-002
   7.7580111329480488E-003
   3.1748268216162980E-002
   1.3453950125438791E-002
   1.7484049398863652E-002
   2.1509450209946129E-002
  -2.3434984695877688E-002
   2.6270450742898993E-002
  -7.0372595539196746E-003
   3.1273213509263049E-002
   7.3347981105378671E-003
   1.7414347730787365E-002
  -3.4628003728320061E-002
   3.4159542421081331E-002
   2.3281211066226434E-002
   2.8479933867889461E-002
   2.6760526665362206E-002
   2.0157470778928759E-002
   3.0082367027446454E-002
   1.0481797033321444E-002
   3.4465062239638515E-002
   9.3575802501235424E-004
   3.9674211315478672E-002
  -6.8607851784059639E-003
   4.4331649494949735E-002
  -1.1308665748478833E-002
   4.6765437811310220E-002
  -4.2946771993706112E-002
  -6.0003167011355302E-003
   4.1571856133208351E-002
   3.4482379725011003E-002
   2.5745908674603926E-002
   1.6593956395626028E-002
  -8.7182891614103648E-003
   8.1077911604625925E-003
   2.8350087082373403E-002
   2.1747384233900408E-002
   3.1558264530088045E-002
   5.8120655462269230E-002
   4.9416137818809054E-002
  -2.5644268858341437E-002
   3.9117338349276068E-002
   5.1549847672651541E-002
   5.1691132906917903E-002
   4.8004023990128417E-002
   4.3339249071442015E-002
   2.5213670430862492E-002
  -1.6616764035654312E-002
  -6.6677827267147480E-003
   3.8028882218695811E-002
   3.9585620510430838E-002
   8.4831360042864536E-003
   2.7471207857157606E-002
   3.8949537444832538E-002
   4.2410543966396937E-002
   5.2998842676941833E-002
   4.0684826629493194E-002
   4.7949952548803521E-002
   3.7861237494693105E-002
   4.3215549011144085E-002
   3.7040227719305700E-002
   3.8164602840621217E-002
   4.2892822801395766E-002
   4.6385855189646552E-002
   4.8055333786667070E-002
   4.7400577754204198E-002
   4.5051998619129258E-002
   4.2173926655717148E-002
   3.9665829839291136E-002
   3.7713645332488346E-002
   3.5773886050524187E-002
   3.2912856964102032E-002
   2.9026623176666128E-002
   2.0057235908047047E-002
  -5.4606797678981328E-002
  -5.0443407120495692E-002
   9.0857938692930212E-003
   9.3756595742443619E-003
  -1.2857312606774578E-002
   2.2333587089276845E-002
   2.2202453692365204E-002
   2.3974162309715875E-002
   3.3860765135270157E-002
  -8.0520490243989849E-003
   1.7136584297025755E-002
   3.5398240526416123E-002
   4.6942524060172797E-002
   4.7621776494236129E-002
   4.0737064892575822E-002
  -2.1957646260772960E-002
   2.2958461317452352E-002
   2.4060895440213892E-002
   4.9356703524809906E-002
   2.6183566884833209E-002
   4.8735832257581005E-002
   2.7162894063698203E-002
   3.9226349072778333E-002
   2.6174299910701471E-002
   2.6966822589790031E-002
   1.7343406353459226E-002
   1.3879353790708596E-002
   1.2804786125033333E-002
   2.4878142815922620E-002
   1.2665884273875588E-002
   2.9152577348257901E-002
   1.4265056930647177E-002
   3.3563899115845092E-002
   1.4823935774934443E-002
   3.6049920122547312E-002
   1.3104127834550904E-002
   3.4647667408406461E-002
   9.8833938025740288E-003
   2.8103690430148424E-002
   7.1215461546645931E-003
   6.7807720382981130E-003
   9.7975537189293575E-003
   1.5678028913812463E-002
   2.2764335532098109E-002
   2.8827261764262729E-002
  -6.2325019452596636E-003
  -8.2664413340462067E-003
  -1.8990229499168499E-002
  -1.9305461932108223E-002
  -1.9347534534582968E-002
  -1.3070508384316918E-002
  -1.2774972632456491E-002
  -1.4773802377446439E-002
   5.1637034860384665E-002
   4.9378896583451744E-002
   3.5467980146714068E-002
   1.6864743680429211E-003
  -6.0539220840585169E-003
  -5.0240991242148630E-003
  -5.4860654316551214E-003
  -7.4826146144069197E-003
  -5.2917491350026021E-003
  -1.5198826334346955E-002
  -2.3474690232744608E-002
  -1.6546788104423685E-002
  -2.3561347391492959E-002
  -1.3417566235965128E-002
  -1.1834262666192003E-002
  -1.1053171998641309E-002
  -3.0766733505877466E-003
   4.7276513119097821E-003
  -2.6990196428950494E-002
  -3.3558215436625030E-002
   2.6472605612860509E-003
  -3.6266896573492975E-002
  -3.4396306241577995E-002
  -2.8906201624424144E-002
  -1.4352158093295368E-002
  -5.8351271805409950E-002
  -5.9921988594096892E-002
  -1.7160833610054861E-003
  -4.5236755456139949E-002
  -4.7499488650724862E-002
  -4.8172561359715052E-002
  -2.8566571285389541E-002
  -2.8083856983322712E-002
   3.2428958505449787E-002
   7.3397591322828170E-003
  -1.5509469998536956E-002
  -2.8733889054108452E-002
   3.2809379297384721E-002
   6.3752956704154744E-003
  -1.7671531612864610E-002
  -1.8603493491619719E-002
  -2.7375926042508970E-002
  -3.2618672522964950E-002
  -3.7792556273541278E-002
  -3.3015908824972968E-002
  -4.5218871337840159E-002
  -2.4129054608666354E-002
  -1.3760011199851749E-002
   6.6083681492947369E-002
  -8.7733727988200498E-003
  -4.3291223014872343E-002
  -1.1927578490344877E-002
  -4.2481366398487208E-002
  -2.1506792183744149E-002
  -4.2548841734324647E-002
  -3.3020080603461739E-002
  -4.2756505999538549E-002
  -4.2043384370818573E-002
  -4.6548868574115651E-002
  -4.7361676093884079E-002
  -4.6919214401246988E-002
  -4.7619893541319354E-002
  -6.9805153134524511E-002
  -8.0755389947952241E-002
  -1.5668387915159347E-002
  -5.1774752387496452E-002
  -4.0554103955931918E-002
  -3.4727370849560180E-002
  -3.4382582156162619E-002
  -2.7023958043812031E-002
  -1.9612472743077449E-002
  -4.2195559787853521E-003
   1.1457726613457692E-002
   1.8115226077821397E-002
  -3.8199147387213743E-002
  -2.0513125311762914E-002
   8.2462475220901540E-003
  -3.9288197543325611E-002
  -2.6970333829958011E-002
  -1.0247120046972900E-002
   1.4440587268966520E-003
  -1.9394833762918531E-002
   2.7958381774498900E-003
  -3.9442628518929414E-002
  -1.8106478690580394E-002
  -2.8937942343028249E-002
  -9.0821496523552821E-003
   5.9235466307113530E-003
  -3.3322379049303442E-002
   9.6468948685384977E-003
  -3.4368028518851679E-002
   2.0754795053961154E-003
  -1.1181979019317334E-002
  -6.5138868211611467E-002
  -2.2969420289138419E-002
  -7.6312634821357417E-002
  -8.1422141009821106E-002
  -2.7577234518083027E-002
  -2.3492515120277620E-002
  -2.1480127296049249E-002
  -3.7118943717475421E-002
  -5.3478225364062895E-002
   1.8442801952130430E-003
  -2.8808544519674489E-002
   3.0841595408147189E-003
   5.9764857662540768E-003
  -7.8841245570538537E-003
  -3.3838303811708118E-002
  -3.9373892136609606E-002
  -4.6426004680615293E-002
  -1.0642539488078476E-002
   1.0049219888092244E-002
  -4.8485574105259693E-002
  -3.7626937699428473E-002
  -1.3629559935573328E-002
  -2.3845245677720676E-002
   9.4590231077630576E-003
  -1.2954643671928931E-002
   1.9687170911596913E-002
  -7.6910833839949604E-004
   1.3415383837455322E-002
  -4.0493380031633181E-003
  -2.2388881521420920E-002
  -9.6896692622964985E-003
  -3.2179250660140712E-002
  -4.8134106008104770E-002
  -2.9225460182540394E-002
   1.5642960903818396E-002
   2.0113729780896469E-002
   1.3535718876255955E-002
   5.1687809228718025E-002
   2.2339771896570784E-002
   3.2728306379400607E-002
   3.4286911707880341E-002
  -3.6038019446717022E-003
   1.8504309725458787E-002
   3.3130248694544966E-003
   1.3912423835204345E-002
  -6.9547260703213473E-003
  -3.2348287280547540E-002
  -4.9319257340679504E-002
  -5.0036198745404041E-002
   1.6531085454327448E-002
  -9.7603914447082843E-003
   1.5641336358377948E-002
  -3.6795333800771629E-002
   4.2642823775280711E-002
  -5.8185631128989508E-002
   4.1067864575782216E-002
  -6.2104080925085424E-002
  -4.7370595476680225E-002
  -2.0493648658725924E-002
   8.8981461004869634E-003
   3.2628011481066782E-002
   4.6613110113404299E-002
   5.1150256547984489E-002
   4.5311933089939770E-002
   6.2221118373259429E-002
   5.7411468552316866E-002
   2.5366099671678542E-002
   4.3890862120510542E-002
   5.2985981390831910E-002
   2.6849027461140623E-002
   4.4943860585203790E-002
   5.3679026042482730E-002
   6.7813279958622741E-002
   5.3506550918697639E-002
   8.5942751617803709E-002
   6.4793717791994276E-002